 Entering Gaussian System, Link 0=/programs/g09/g09/g09
 Input=/scratch2/Wise/ML/docking/dataset/DGlcpa2NS6SOME/q/2/DGlcpa2NS6SOME_trainingTesting_2_q.com
 Output=/scratch2/Wise/ML/docking/dataset/DGlcpa2NS6SOME/q/2/DGlcpa2NS6SOME_trainingTesting_2_q.log
 Initial command:
 /programs/g09/g09/l1.exe "/local/Wise/DGlcpa2NS6SOME_trainingTesting_2_q/Gau-7182.inp" -scrdir="/local/Wise/DGlcpa2NS6SOME_trainingTesting_2_q/"
 Entering Link 1 = /programs/g09/g09/l1.exe PID=      7183.
  
 Copyright (c) 1988,1990,1992,1993,1995,1998,2003,2009,2013,
            Gaussian, Inc.  All Rights Reserved.
  
 This is part of the Gaussian(R) 09 program.  It is based on
 the Gaussian(R) 03 system (copyright 2003, Gaussian, Inc.),
 the Gaussian(R) 98 system (copyright 1998, Gaussian, Inc.),
 the Gaussian(R) 94 system (copyright 1995, Gaussian, Inc.),
 the Gaussian 92(TM) system (copyright 1992, Gaussian, Inc.),
 the Gaussian 90(TM) system (copyright 1990, Gaussian, Inc.),
 the Gaussian 88(TM) system (copyright 1988, Gaussian, Inc.),
 the Gaussian 86(TM) system (copyright 1986, Carnegie Mellon
 University), and the Gaussian 82(TM) system (copyright 1983,
 Carnegie Mellon University). Gaussian is a federally registered
 trademark of Gaussian, Inc.
  
 This software contains proprietary and confidential information,
 including trade secrets, belonging to Gaussian, Inc.
  
 This software is provided under written license and may be
 used, copied, transmitted, or stored only in accord with that
 written license.
  
 The following legend is applicable only to US Government
 contracts under FAR:
  
                    RESTRICTED RIGHTS LEGEND
  
 Use, reproduction and disclosure by the US Government is
 subject to restrictions as set forth in subparagraphs (a)
 and (c) of the Commercial Computer Software - Restricted
 Rights clause in FAR 52.227-19.
  
 Gaussian, Inc.
 340 Quinnipiac St., Bldg. 40, Wallingford CT 06492
  
  
 ---------------------------------------------------------------
 Warning -- This program may not be used in any manner that
 competes with the business of Gaussian, Inc. or will provide
 assistance to any competitor of Gaussian, Inc.  The licensee
 of this program is prohibited from giving any competitor of
 Gaussian, Inc. access to this program.  By using this program,
 the user acknowledges that Gaussian, Inc. is engaged in the
 business of creating and licensing software in the field of
 computational chemistry and represents and warrants to the
 licensee that it is not a competitor of Gaussian, Inc. and that
 it will not use this program in any manner prohibited above.
 ---------------------------------------------------------------
  

 Cite this work as:
 Gaussian 09, Revision D.01,
 M. J. Frisch, G. W. Trucks, H. B. Schlegel, G. E. Scuseria, 
 M. A. Robb, J. R. Cheeseman, G. Scalmani, V. Barone, B. Mennucci, 
 G. A. Petersson, H. Nakatsuji, M. Caricato, X. Li, H. P. Hratchian, 
 A. F. Izmaylov, J. Bloino, G. Zheng, J. L. Sonnenberg, M. Hada, 
 M. Ehara, K. Toyota, R. Fukuda, J. Hasegawa, M. Ishida, T. Nakajima, 
 Y. Honda, O. Kitao, H. Nakai, T. Vreven, J. A. Montgomery, Jr., 
 J. E. Peralta, F. Ogliaro, M. Bearpark, J. J. Heyd, E. Brothers, 
 K. N. Kudin, V. N. Staroverov, T. Keith, R. Kobayashi, J. Normand, 
 K. Raghavachari, A. Rendell, J. C. Burant, S. S. Iyengar, J. Tomasi, 
 M. Cossi, N. Rega, J. M. Millam, M. Klene, J. E. Knox, J. B. Cross, 
 V. Bakken, C. Adamo, J. Jaramillo, R. Gomperts, R. E. Stratmann, 
 O. Yazyev, A. J. Austin, R. Cammi, C. Pomelli, J. W. Ochterski, 
 R. L. Martin, K. Morokuma, V. G. Zakrzewski, G. A. Voth, 
 P. Salvador, J. J. Dannenberg, S. Dapprich, A. D. Daniels, 
 O. Farkas, J. B. Foresman, J. V. Ortiz, J. Cioslowski, 
 and D. J. Fox, Gaussian, Inc., Wallingford CT, 2013.
 
 ******************************************
 Gaussian 09:  ES64L-G09RevD.01 24-Apr-2013
                21-Feb-2020 
 ******************************************
 %chk=DGlcpa2NS6SOME_trainingTesting_2_q.chk
 %mem=1GB
 %nproc=1
 Will use up to    1 processors via shared memory.
 -----------------------------------------------
 #b3lyp/cc-pVTZ pop=chelpg iop(6/33=2) scf=tight
 -----------------------------------------------
 1/38=1/1;
 2/12=2,17=6,18=5,40=1/2;
 3/5=16,6=1,11=2,16=1,25=1,30=1,74=-5/1,2,3;
 4//1;
 5/5=2,32=2,38=5/2;
 6/7=2,8=2,9=2,10=2,15=8,20=3,28=1,33=2/1,2;
 99/5=1,9=1/99;
 -------------------
 Title Card Required
 -------------------
 Symbolic Z-matrix:
 Charge = -2 Multiplicity = 1
 C                    -0.34499  -0.03361   0.04872 
 H                    -1.07456   0.37835   0.73851 
 H                     0.52397  -0.3438    0.61882 
 H                    -0.05156   0.73028  -0.6553 
 O                    -0.92769  -1.1462   -0.57497 
 C                    -0.85208  -1.32782  -1.96241 
 H                    -1.76629  -0.9511   -2.40396 
 C                    -0.73709  -2.83693  -2.27868 
 H                    -0.90755  -2.93566  -3.34738 
 N                    -1.84569  -3.48732  -1.58051 
 H                    -2.15667  -2.90045  -0.8341 
 S                    -1.84381  -5.03262  -0.87042 
 O                    -0.65775  -5.13335  -0.03863 
 O                    -1.88605  -5.9779   -1.96281 
 O                    -3.07014  -4.95064  -0.09574 
 C                     0.69665  -3.33794  -2.04462 
 H                     0.92813  -3.37003  -0.98795 
 O                     0.84914  -4.60991  -2.61187 
 H                     1.73731  -4.67844  -2.92865 
 C                     1.65262  -2.3839   -2.76522 
 H                     1.41247  -2.41772  -3.82606 
 O                     2.98423  -2.83935  -2.57392 
 H                     3.40343  -2.95301  -3.41264 
 C                     1.48711  -0.95099  -2.29641 
 H                     1.70631  -0.89559  -1.23628 
 O                     0.15296  -0.58182  -2.5548 
 C                     2.39545   0.01775  -3.0312 
 H                     3.42224  -0.31468  -2.94924 
 H                     2.10995   0.04187  -4.07534 
 O                     2.27181   1.29488  -2.46367 
 S                     2.51313   2.57196  -3.44966 
 O                     2.35893   3.67651  -2.54031 
 O                     1.49401   2.46534  -4.46668 
 O                     3.85593   2.37643  -3.95577 
 
                          Input orientation:                          
 ---------------------------------------------------------------------
 Center     Atomic      Atomic             Coordinates (Angstroms)
 Number     Number       Type             X           Y           Z
 ---------------------------------------------------------------------
      1          6           0       -0.344989   -0.033609    0.048721
      2          1           0       -1.074555    0.378352    0.738507
      3          1           0        0.523968   -0.343795    0.618819
      4          1           0       -0.051558    0.730278   -0.655301
      5          8           0       -0.927692   -1.146203   -0.574973
      6          6           0       -0.852078   -1.327823   -1.962409
      7          1           0       -1.766289   -0.951105   -2.403961
      8          6           0       -0.737093   -2.836932   -2.278675
      9          1           0       -0.907548   -2.935658   -3.347380
     10          7           0       -1.845686   -3.487325   -1.580511
     11          1           0       -2.156668   -2.900447   -0.834095
     12         16           0       -1.843809   -5.032625   -0.870422
     13          8           0       -0.657750   -5.133353   -0.038630
     14          8           0       -1.886054   -5.977903   -1.962810
     15          8           0       -3.070145   -4.950636   -0.095736
     16          6           0        0.696648   -3.337944   -2.044620
     17          1           0        0.928126   -3.370029   -0.987949
     18          8           0        0.849145   -4.609908   -2.611872
     19          1           0        1.737312   -4.678440   -2.928649
     20          6           0        1.652623   -2.383905   -2.765220
     21          1           0        1.412470   -2.417716   -3.826060
     22          8           0        2.984232   -2.839350   -2.573924
     23          1           0        3.403431   -2.953014   -3.412640
     24          6           0        1.487109   -0.950995   -2.296406
     25          1           0        1.706313   -0.895589   -1.236281
     26          8           0        0.152958   -0.581820   -2.554799
     27          6           0        2.395448    0.017753   -3.031196
     28          1           0        3.422243   -0.314677   -2.949241
     29          1           0        2.109948    0.041872   -4.075339
     30          8           0        2.271812    1.294877   -2.463674
     31         16           0        2.513135    2.571962   -3.449655
     32          8           0        2.358933    3.676510   -2.540314
     33          8           0        1.494010    2.465335   -4.466682
     34          8           0        3.855933    2.376432   -3.955768
 ---------------------------------------------------------------------
                    Distance matrix (angstroms):
                    1          2          3          4          5
     1  C    0.000000
     2  H    1.085258   0.000000
     3  H    1.084580   1.758152   0.000000
     4  H    1.079477   1.764391   1.763021   0.000000
     5  O    1.402285   2.017688   2.043603   2.072497   0.000000
     6  C    2.444745   3.202418   3.086188   2.566154   1.401315
     7  H    2.979521   3.481531   3.840742   2.970718   2.021511
     8  C    3.664579   4.422140   4.025106   3.978730   2.407799
     9  H    4.502429   5.263557   4.949518   4.628077   3.299818
    10  N    4.103004   4.573396   4.509334   4.675798   2.708260
    11  H    3.504327   3.794018   3.979100   4.200669   2.157521
    12  S    5.299193   5.697287   5.459792   6.038997   4.003853
    13  O    5.110073   5.581806   4.976802   5.927050   4.032108
    14  O    6.461871   6.953965   6.649525   7.076344   5.117605
    15  O    5.623567   5.751213   5.886528   6.457381   4.392435
    16  C    4.047928   4.969288   4.011067   4.363537   3.098722
    17  H    3.718495   4.587128   3.450092   4.228824   2.925750
    18  O    5.426530   6.309390   5.361233   5.758213   4.393559
    19  H    5.897048   6.850240   5.731133   6.133710   5.011860
    20  C    4.175237   5.229118   4.109456   4.129664   3.603764
    21  H    4.877146   5.902421   4.984730   4.701804   4.202699
    22  O    5.082731   6.148135   4.740706   5.063534   4.708047
    23  H    5.878316   6.955745   5.599285   5.753826   5.484118
    24  C    3.114129   4.188077   3.129675   2.808451   2.971987
    25  H    2.569451   3.640871   2.267997   2.463958   2.727292
    26  O    2.706807   3.643431   3.204084   2.317654   2.325090
    27  C    4.122926   5.136304   4.117737   3.484308   4.293144
    28  H    4.822739   5.856703   4.596944   4.292014   5.024990
    29  H    4.800029   5.781643   4.969828   4.103982   4.784490
    30  O    3.863243   4.721457   3.904096   2.997838   4.445548
    31  S    5.215027   5.934994   5.386178   4.216381   5.824761
    32  O    5.270605   5.780775   5.432318   4.247826   6.158168
    33  O    5.478640   6.168227   5.890205   4.463836   5.835517
    34  O    6.284264   7.094946   6.279210   5.373211   6.835336
                    6          7          8          9         10
     6  C    0.000000
     7  H    1.082897   0.000000
     8  C    1.546174   2.152043   0.000000
     9  H    2.122818   2.359223   1.086707   0.000000
    10  N    2.407602   2.667730   1.462677   2.075154   0.000000
    11  H    2.334136   2.533142   2.026336   2.806803   0.999135
    12  S    3.987671   4.360798   2.833561   3.377747   1.700642
    13  O    4.268576   4.931009   3.208994   3.979960   2.549117
    14  O    4.763649   5.047540   3.359402   3.482781   2.520072
    15  O    4.639942   4.798353   3.830940   4.394331   2.417671
    16  C    2.538878   3.448506   1.536687   2.105341   2.588663
    17  H    2.879115   3.887950   2.173274   3.020809   2.838824
    18  O    3.753404   4.502284   2.402210   2.535755   3.096128
    19  H    4.343409   5.142330   3.152190   3.194981   4.009253
    20  C    2.834315   3.724565   2.480464   2.682874   3.854768
    21  H    3.128776   3.778601   2.681559   2.424846   4.099040
    22  O    4.168445   5.114861   3.733019   3.969062   4.973414
    23  H    4.780562   5.634810   4.294565   4.311507   5.585285
    24  C    2.392771   3.255176   2.916187   3.282959   4.248882
    25  H    2.694338   3.664086   3.290232   3.930762   4.410475
    26  O    1.384754   1.960264   2.440074   2.700631   3.658657
    27  C    3.674140   4.318815   4.304454   4.442115   5.690103
    28  H    4.502235   5.255781   4.910346   5.076922   6.300015
    29  H    3.887690   4.336441   4.429577   4.301266   5.858877
    30  O    4.109564   4.621067   5.114643   5.365323   6.372066
    31  S    5.361426   5.640829   6.418046   6.484244   7.694672
    32  O    5.973937   6.200876   7.216561   7.419031   8.361852
    33  O    5.115033   5.153293   6.154611   6.015900   7.410649
    34  O    6.313506   6.714908   7.147566   7.160949   8.516687
                   11         12         13         14         15
    11  H    0.000000
    12  S    2.155315   0.000000
    13  O    2.804530   1.452156   0.000000
    14  O    3.289067   1.445215   2.434022   0.000000
    15  O    2.362814   1.452845   2.419979   2.437891   0.000000
    16  C    3.130205   3.271789   3.013616   3.694107   4.537362
    17  H    3.124121   3.234449   2.554510   3.958658   4.390960
    18  O    3.888143   3.234708   3.027589   3.126340   4.669889
    19  H    4.765658   4.145621   3.780936   3.968656   5.586692
    20  C    4.301948   4.778181   4.509055   5.107144   6.001565
    21  H    4.682267   5.116336   5.099521   5.198739   6.358053
    22  O    5.427668   5.569771   4.995417   5.826119   6.874185
    23  H    6.129139   6.190410   5.712355   6.263434   7.543177
    24  C    4.383586   5.457852   5.214412   6.062947   6.450476
    25  H    4.370793   5.463724   4.998180   6.266009   6.368579
    26  O    3.697461   5.160801   5.263535   5.798770   5.960028
    27  C    5.836514   6.938772   6.694128   7.444501   7.948240
    28  H    6.502637   7.369655   6.952527   7.824525   8.472644
    29  H    6.112848   7.187086   7.123069   7.527849   8.221662
    30  O    6.314088   7.714536   7.468956   8.392380   8.552781
    31  S    7.654768   9.135926   9.003415   9.729531   9.950441
    32  O    8.158320   9.813287   9.642224  10.562250  10.482294
    33  O    7.437389   8.960666   9.054158   9.433053   9.743372
    34  O    8.587297   9.843808   9.597613  10.331371  10.796126
                   16         17         18         19         20
    16  C    0.000000
    17  H    1.082204   0.000000
    18  O    1.401043   2.044667   0.000000
    19  H    1.913483   2.476498   0.945456   0.000000
    20  C    1.530798   2.157783   2.371536   2.301907   0.000000
    21  H    2.129026   3.032550   2.568520   2.453924   1.088209
    22  O    2.400374   2.650379   2.773971   2.250087   1.420284
    23  H    3.057175   3.490009   3.148159   2.446894   1.951504
    24  C    2.527005   2.806465   3.727488   3.788956   1.516711
    25  H    2.763682   2.605781   4.052549   4.144278   2.134390
    26  O    2.855189   3.290898   4.088205   4.408201   2.353886
    27  C    3.888439   4.219592   4.897155   4.743194   2.527942
    28  H    4.169814   4.404822   5.018332   4.677803   2.728941
    29  H    4.188603   4.750763   5.036906   4.871869   2.794629
    30  O    4.911190   5.073914   6.075560   6.015182   3.742694
    31  S    6.340406   6.624161   7.419569   7.310382   5.076372
    32  O    7.225751   7.356001   8.423141   8.387038   6.105578
    33  O    6.338787   6.817131   7.342700   7.311516   5.141523
    34  O    6.803504   7.099424   7.723716   7.437389   5.378921
                   21         22         23         24         25
    21  H    0.000000
    22  O    2.053304   0.000000
    23  H    2.102709   0.944507   0.000000
    24  C    2.120539   2.425753   2.987700   0.000000
    25  H    3.018307   2.683388   3.442347   1.083967   0.000000
    26  O    2.563784   3.621176   4.113882   1.408196   2.061517
    27  C    2.744005   2.952761   3.160220   1.517718   2.128572
    28  H    3.038219   2.589727   2.678790   2.139120   2.493212
    29  H    2.568695   3.364530   3.328906   2.130332   3.016953
    30  O    4.046964   4.196609   4.497297   2.384885   2.573796
    31  S    5.123479   5.501921   5.596371   3.846289   4.192124
    32  O    6.299883   6.545881   6.767756   4.715227   4.799011
    33  O    4.925570   5.826060   5.840839   4.047401   4.666516
    34  O    5.382490   5.465688   5.376128   4.408694   4.766823
                   26         27         28         29         30
    26  O    0.000000
    27  C    2.369642   0.000000
    28  H    3.303812   1.082374   0.000000
    29  H    2.555551   1.082740   1.765599   0.000000
    30  O    2.831932   1.403002   2.037138   2.047849   0.000000
    31  S    4.039499   2.590935   3.067504   2.637308   1.631362
    32  O    4.795822   3.691721   4.150594   3.953338   2.384458
    33  O    3.839124   2.977225   3.707988   2.530949   2.446832
    34  O    4.942267   2.924247   2.905728   2.917693   2.430133
                   31         32         33         34
    31  S    0.000000
    32  O    1.438994   0.000000
    33  O    1.443720   2.434323   0.000000
    34  O    1.448271   2.436129   2.418184   0.000000
 Stoichiometry    C7H13NO11S2(2-)
 Framework group  C1[X(C7H13NO11S2)]
 Deg. of freedom    96
 Full point group                 C1      NOp   1
 Largest Abelian subgroup         C1      NOp   1
 Largest concise Abelian subgroup C1      NOp   1
                         Standard orientation:                         
 ---------------------------------------------------------------------
 Center     Atomic      Atomic             Coordinates (Angstroms)
 Number     Number       Type             X           Y           Z
 ---------------------------------------------------------------------
      1          6           0        0.240316   -2.399320   -1.294912
      2          1           0        0.049115   -3.453474   -1.468075
      3          1           0        0.246957   -1.893370   -2.254226
      4          1           0        1.207407   -2.286050   -0.828890
      5          8           0       -0.802381   -1.901042   -0.500617
      6          6           0       -0.547002   -1.100385    0.620728
      7          1           0       -0.554196   -1.734301    1.498660
      8          6           0       -1.667348   -0.044689    0.765590
      9          1           0       -1.546260    0.390943    1.753768
     10          7           0       -2.930192   -0.782451    0.746720
     11          1           0       -2.789125   -1.668967    0.308016
     12         16           0       -4.409364   -0.265073    0.085999
     13          8           0       -4.145209    0.223365   -1.255794
     14          8           0       -4.927175    0.735051    0.991687
     15          8           0       -5.137726   -1.522121    0.094940
     16          6           0       -1.458617    1.114495   -0.221391
     17          1           0       -1.656369    0.798567   -1.237387
     18          8           0       -2.295845    2.183377    0.124243
     19          1           0       -1.841238    2.984615   -0.088448
     20          6           0       -0.009635    1.590340   -0.089611
     21          1           0        0.130033    1.938366    0.931941
     22          8           0        0.199445    2.673723   -0.983911
     23          1           0        0.530235    3.418700   -0.506752
     24          6           0        0.982025    0.470129   -0.338915
     25          1           0        0.850503    0.096067   -1.347758
     26          8           0        0.717610   -0.536307    0.609866
     27          6           0        2.424167    0.911521   -0.169015
     28          1           0        2.618566    1.767260   -0.802620
     29          1           0        2.585937    1.188524    0.865115
     30          8           0        3.279514   -0.140317   -0.530168
     31         16           0        4.725404   -0.212984    0.221804
     32          8           0        5.330622   -1.351091   -0.417828
     33          8           0        4.417884   -0.385346    1.621822
     34          8           0        5.343222    1.061537   -0.080499
 ---------------------------------------------------------------------
 Rotational constants (GHZ):      0.6836637      0.1149254      0.1057683
 Standard basis: CC-pVTZ (5D, 7F)
 There are   938 symmetry adapted cartesian basis functions of A   symmetry.
 There are   820 symmetry adapted basis functions of A   symmetry.
   820 basis functions,  1397 primitive gaussians,   938 cartesian basis functions
    92 alpha electrons       92 beta electrons
       nuclear repulsion energy      2327.5706214822 Hartrees.
 NAtoms=   34 NActive=   34 NUniq=   34 SFac= 1.00D+00 NAtFMM=   60 NAOKFM=F Big=F
 Integral buffers will be    131072 words long.
 Raffenetti 2 integral format.
 Two-electron integral symmetry is turned on.
 One-electron integrals computed using PRISM.
 NBasis=   820 RedAO= T EigKep=  1.49D-04  NBF=   820
 NBsUse=   820 1.00D-06 EigRej= -1.00D+00 NBFU=   820
 ExpMin= 1.03D-01 ExpMax= 3.74D+05 ExpMxC= 1.18D+03 IAcc=2 IRadAn=         4 AccDes= 0.00D+00
 Harris functional with IExCor=  402 and IRadAn=       4 diagonalized for initial guess.
 HarFok:  IExCor=  402 AccDes= 0.00D+00 IRadAn=         4 IDoV= 1 UseB2=F ITyADJ=14
 ICtDFT=  3500011 ScaDFX=  1.000000  1.000000  1.000000  1.000000
 FoFCou: FMM=F IPFlag=           0 FMFlag=      100000 FMFlg1=           0
         NFxFlg=           0 DoJE=T BraDBF=F KetDBF=T FulRan=T
         wScrn=  0.000000 ICntrl=     500 IOpCl=  0 I1Cent=   200000004 NGrid=           0
         NMat0=    1 NMatS0=      1 NMatT0=    0 NMatD0=    1 NMtDS0=    0 NMtDT0=    0
 Petite list used in FoFCou.
 Requested convergence on RMS density matrix=1.00D-08 within 128 cycles.
 Requested convergence on MAX density matrix=1.00D-06.
 Requested convergence on             energy=1.00D-06.
 No special actions if energy rises.
 Integral accuracy reduced to 1.0D-05 until final iterations.
 Initial convergence to 1.0D-05 achieved.  Increase integral accuracy.
 SCF Done:  E(RB3LYP) =  -1953.64629098     A.U. after   13 cycles
            NFock= 13  Conv=0.74D-08     -V/T= 2.0043

 **********************************************************************

            Population analysis using the SCF density.

 **********************************************************************

 Orbital symmetries:
 BldTbl:  Degeneracy threshold= 1.00D-02
       Occupied  (A) (A) (A) (A) (A) (A) (A) (A) (A) (A) (A) (A)
                 (A) (A) (A) (A) (A) (A) (A) (A) (A) (A) (A) (A)
                 (A) (A) (A) (A) (A) (A) (A) (A) (A) (A) (A) (A)
                 (A) (A) (A) (A) (A) (A) (A) (A) (A) (A) (A) (A)
                 (A) (A) (A) (A) (A) (A) (A) (A) (A) (A) (A) (A)
                 (A) (A) (A) (A) (A) (A) (A) (A) (A) (A) (A) (A)
                 (A) (A) (A) (A) (A) (A) (A) (A) (A) (A) (A) (A)
                 (A) (A) (A) (A) (A) (A) (A) (A)
       Virtual   (A) (A) (A) (A) (A) (A) (A) (A) (A) (A) (A) (A)
                 (A) (A) (A) (A) (A) (A) (A) (A) (A) (A) (A) (A)
                 (A) (A) (A) (A) (A) (A) (A) (A) (A) (A) (A) (A)
                 (A) (A) (A) (A) (A) (A) (A) (A) (A) (A) (A) (A)
                 (A) (A) (A) (A) (A) (A) (A) (A) (A) (A) (A) (A)
                 (A) (A) (A) (A) (A) (A) (A) (A) (A) (A) (A) (A)
                 (A) (A) (A) (A) (A) (A) (A) (A) (A) (A) (A) (A)
                 (A) (A) (A) (A) (A) (A) (A) (A) (A) (A) (A) (A)
                 (A) (A) (A) (A) (A) (A) (A) (A) (A) (A) (A) (A)
                 (A) (A) (A) (A) (A) (A) (A) (A) (A) (A) (A) (A)
                 (A) (A) (A) (A) (A) (A) (A) (A) (A) (A) (A) (A)
                 (A) (A) (A) (A) (A) (A) (A) (A) (A) (A) (A) (A)
                 (A) (A) (A) (A) (A) (A) (A) (A) (A) (A) (A) (A)
                 (A) (A) (A) (A) (A) (A) (A) (A) (A) (A) (A) (A)
                 (A) (A) (A) (A) (A) (A) (A) (A) (A) (A) (A) (A)
                 (A) (A) (A) (A) (A) (A) (A) (A) (A) (A) (A) (A)
                 (A) (A) (A) (A) (A) (A) (A) (A) (A) (A) (A) (A)
                 (A) (A) (A) (A) (A) (A) (A) (A) (A) (A) (A) (A)
                 (A) (A) (A) (A) (A) (A) (A) (A) (A) (A) (A) (A)
                 (A) (A) (A) (A) (A) (A) (A) (A) (A) (A) (A) (A)
                 (A) (A) (A) (A) (A) (A) (A) (A) (A) (A) (A) (A)
                 (A) (A) (A) (A) (A) (A) (A) (A) (A) (A) (A) (A)
                 (A) (A) (A) (A) (A) (A) (A) (A) (A) (A) (A) (A)
                 (A) (A) (A) (A) (A) (A) (A) (A) (A) (A) (A) (A)
                 (A) (A) (A) (A) (A) (A) (A) (A) (A) (A) (A) (A)
                 (A) (A) (A) (A) (A) (A) (A) (A) (A) (A) (A) (A)
                 (A) (A) (A) (A) (A) (A) (A) (A) (A) (A) (A) (A)
                 (A) (A) (A) (A) (A) (A) (A) (A) (A) (A) (A) (A)
                 (A) (A) (A) (A) (A) (A) (A) (A) (A) (A) (A) (A)
                 (A) (A) (A) (A) (A) (A) (A) (A) (A) (A) (A) (A)
                 (A) (A) (A) (A) (A) (A) (A) (A) (A) (A) (A) (A)
                 (A) (A) (A) (A) (A) (A) (A) (A) (A) (A) (A) (A)
                 (A) (A) (A) (A) (A) (A) (A) (A) (A) (A) (A) (A)
                 (A) (A) (A) (A) (A) (A) (A) (A) (A) (A) (A) (A)
                 (A) (A) (A) (A) (A) (A) (A) (A) (A) (A) (A) (A)
                 (A) (A) (A) (A) (A) (A) (A) (A) (A) (A) (A) (A)
                 (A) (A) (A) (A) (A) (A) (A) (A) (A) (A) (A) (A)
                 (A) (A) (A) (A) (A) (A) (A) (A) (A) (A) (A) (A)
                 (A) (A) (A) (A) (A) (A) (A) (A) (A) (A) (A) (A)
                 (A) (A) (A) (A) (A) (A) (A) (A) (A) (A) (A) (A)
                 (A) (A) (A) (A) (A) (A) (A) (A) (A) (A) (A) (A)
                 (A) (A) (A) (A) (A) (A) (A) (A) (A) (A) (A) (A)
                 (A) (A) (A) (A) (A) (A) (A) (A) (A) (A) (A) (A)
                 (A) (A) (A) (A) (A) (A) (A) (A) (A) (A) (A) (A)
                 (A) (A) (A) (A) (A) (A) (A) (A) (A) (A) (A) (A)
                 (A) (A) (A) (A) (A) (A) (A) (A) (A) (A) (A) (A)
                 (A) (A) (A) (A) (A) (A) (A) (A) (A) (A) (A) (A)
                 (A) (A) (A) (A) (A) (A) (A) (A) (A) (A) (A) (A)
                 (A) (A) (A) (A) (A) (A) (A) (A) (A) (A) (A) (A)
                 (A) (A) (A) (A) (A) (A) (A) (A) (A) (A) (A) (A)
                 (A) (A) (A) (A) (A) (A) (A) (A) (A) (A) (A) (A)
                 (A) (A) (A) (A) (A) (A) (A) (A) (A) (A) (A) (A)
                 (A) (A) (A) (A) (A) (A) (A) (A) (A) (A) (A) (A)
                 (A) (A) (A) (A) (A) (A) (A) (A) (A) (A) (A) (A)
                 (A) (A) (A) (A) (A) (A) (A) (A) (A) (A) (A) (A)
                 (A) (A) (A) (A) (A) (A) (A) (A) (A) (A) (A) (A)
                 (A) (A) (A) (A) (A) (A) (A) (A) (A) (A) (A) (A)
                 (A) (A) (A) (A) (A) (A) (A) (A) (A) (A) (A) (A)
                 (A) (A) (A) (A) (A) (A) (A) (A) (A) (A) (A) (A)
                 (A) (A) (A) (A) (A) (A) (A) (A) (A) (A) (A) (A)
                 (A) (A) (A) (A) (A) (A) (A) (A)
 The electronic state is 1-A.
 Alpha  occ. eigenvalues --  -88.85807 -88.82996 -18.96995 -18.95397 -18.94666
 Alpha  occ. eigenvalues --  -18.92639 -18.92310 -18.85537 -18.85302 -18.85226
 Alpha  occ. eigenvalues --  -18.83043 -18.82996 -18.82945 -14.08286 -10.08700
 Alpha  occ. eigenvalues --  -10.04633 -10.03921 -10.03228 -10.02432 -10.02226
 Alpha  occ. eigenvalues --  -10.00934  -7.87590  -7.84826  -5.84210  -5.83862
 Alpha  occ. eigenvalues --   -5.83854  -5.81364  -5.81140  -5.81120  -0.91429
 Alpha  occ. eigenvalues --   -0.90224  -0.87659  -0.86768  -0.83653  -0.83212
 Alpha  occ. eigenvalues --   -0.80352  -0.74889  -0.74387  -0.72193  -0.71883
 Alpha  occ. eigenvalues --   -0.68013  -0.60737  -0.57457  -0.53194  -0.49066
 Alpha  occ. eigenvalues --   -0.45226  -0.43286  -0.39784  -0.37213  -0.36212
 Alpha  occ. eigenvalues --   -0.35066  -0.33838  -0.32235  -0.31538  -0.29841
 Alpha  occ. eigenvalues --   -0.28316  -0.27048  -0.26858  -0.26052  -0.25003
 Alpha  occ. eigenvalues --   -0.24361  -0.23990  -0.22933  -0.22337  -0.21385
 Alpha  occ. eigenvalues --   -0.20372  -0.20025  -0.18877  -0.18306  -0.17136
 Alpha  occ. eigenvalues --   -0.16995  -0.16068  -0.15389  -0.14132  -0.12306
 Alpha  occ. eigenvalues --   -0.10743  -0.10555  -0.10066  -0.10018  -0.09396
 Alpha  occ. eigenvalues --   -0.08652  -0.08263  -0.08144  -0.07671  -0.06706
 Alpha  occ. eigenvalues --   -0.05930  -0.05195  -0.04196  -0.03883  -0.02021
 Alpha  occ. eigenvalues --   -0.00430   0.00314
 Alpha virt. eigenvalues --    0.17764   0.21987   0.23484   0.25382   0.25896
 Alpha virt. eigenvalues --    0.26760   0.27589   0.28589   0.29862   0.30230
 Alpha virt. eigenvalues --    0.31092   0.32520   0.32583   0.33069   0.33619
 Alpha virt. eigenvalues --    0.34588   0.35569   0.36763   0.37539   0.38457
 Alpha virt. eigenvalues --    0.39226   0.39612   0.40021   0.40418   0.41774
 Alpha virt. eigenvalues --    0.42115   0.42440   0.43061   0.44785   0.45024
 Alpha virt. eigenvalues --    0.45627   0.47372   0.47695   0.48621   0.49485
 Alpha virt. eigenvalues --    0.50330   0.50467   0.51531   0.51657   0.52238
 Alpha virt. eigenvalues --    0.52769   0.52857   0.53615   0.53928   0.54174
 Alpha virt. eigenvalues --    0.55475   0.56039   0.56387   0.57320   0.58355
 Alpha virt. eigenvalues --    0.58496   0.58738   0.60309   0.61250   0.61703
 Alpha virt. eigenvalues --    0.62026   0.62449   0.62678   0.63367   0.63654
 Alpha virt. eigenvalues --    0.64014   0.64792   0.65318   0.66289   0.66720
 Alpha virt. eigenvalues --    0.67273   0.67728   0.68545   0.69428   0.69943
 Alpha virt. eigenvalues --    0.70499   0.70562   0.71276   0.72361   0.73064
 Alpha virt. eigenvalues --    0.73496   0.74783   0.75459   0.75874   0.76563
 Alpha virt. eigenvalues --    0.77232   0.77545   0.78122   0.78281   0.78512
 Alpha virt. eigenvalues --    0.79065   0.79668   0.80620   0.81341   0.81976
 Alpha virt. eigenvalues --    0.82199   0.82687   0.84262   0.84852   0.86345
 Alpha virt. eigenvalues --    0.88585   0.88961   0.89322   0.90089   0.90365
 Alpha virt. eigenvalues --    0.92043   0.92897   0.93411   0.94188   0.94535
 Alpha virt. eigenvalues --    0.95770   0.96688   0.96732   0.97016   0.97783
 Alpha virt. eigenvalues --    0.98549   0.98859   0.99626   0.99843   1.00370
 Alpha virt. eigenvalues --    1.01289   1.01831   1.02322   1.03680   1.05061
 Alpha virt. eigenvalues --    1.05607   1.07580   1.07721   1.09041   1.09278
 Alpha virt. eigenvalues --    1.09667   1.11692   1.12332   1.12744   1.13309
 Alpha virt. eigenvalues --    1.13654   1.14287   1.15091   1.15709   1.16288
 Alpha virt. eigenvalues --    1.16510   1.17561   1.18223   1.19623   1.19688
 Alpha virt. eigenvalues --    1.20434   1.21518   1.22701   1.23035   1.23545
 Alpha virt. eigenvalues --    1.24456   1.24773   1.26197   1.28082   1.29157
 Alpha virt. eigenvalues --    1.29529   1.30747   1.31491   1.31889   1.32821
 Alpha virt. eigenvalues --    1.33577   1.34332   1.36490   1.36726   1.36925
 Alpha virt. eigenvalues --    1.38660   1.39944   1.40652   1.41552   1.42341
 Alpha virt. eigenvalues --    1.43058   1.44241   1.44435   1.44987   1.46266
 Alpha virt. eigenvalues --    1.46510   1.47321   1.47898   1.48093   1.49356
 Alpha virt. eigenvalues --    1.50538   1.50716   1.52367   1.53079   1.53783
 Alpha virt. eigenvalues --    1.54422   1.55168   1.55942   1.56563   1.57246
 Alpha virt. eigenvalues --    1.58521   1.59338   1.59937   1.60340   1.61115
 Alpha virt. eigenvalues --    1.62387   1.62475   1.63150   1.63349   1.64476
 Alpha virt. eigenvalues --    1.65166   1.65729   1.65900   1.66995   1.67495
 Alpha virt. eigenvalues --    1.67730   1.68102   1.68705   1.69500   1.69921
 Alpha virt. eigenvalues --    1.70694   1.71476   1.72602   1.72939   1.73714
 Alpha virt. eigenvalues --    1.74705   1.75191   1.76979   1.78500   1.79647
 Alpha virt. eigenvalues --    1.80470   1.81678   1.82466   1.83933   1.84256
 Alpha virt. eigenvalues --    1.85665   1.86492   1.87641   1.88315   1.88875
 Alpha virt. eigenvalues --    1.89697   1.90334   1.91418   1.91887   1.92492
 Alpha virt. eigenvalues --    1.94247   1.94507   1.95417   1.96414   1.97455
 Alpha virt. eigenvalues --    1.98244   1.99771   2.01195   2.01677   2.03279
 Alpha virt. eigenvalues --    2.04527   2.04773   2.06663   2.07207   2.08705
 Alpha virt. eigenvalues --    2.10326   2.11287   2.12064   2.12829   2.15127
 Alpha virt. eigenvalues --    2.15690   2.16337   2.17837   2.19548   2.20441
 Alpha virt. eigenvalues --    2.20546   2.23918   2.24075   2.25317   2.26437
 Alpha virt. eigenvalues --    2.27574   2.28501   2.30477   2.31104   2.32480
 Alpha virt. eigenvalues --    2.33987   2.35721   2.36549   2.36954   2.38692
 Alpha virt. eigenvalues --    2.40326   2.42121   2.43677   2.46055   2.47433
 Alpha virt. eigenvalues --    2.48602   2.49095   2.49948   2.50194   2.51019
 Alpha virt. eigenvalues --    2.52143   2.53539   2.55223   2.55930   2.58307
 Alpha virt. eigenvalues --    2.58796   2.60118   2.60407   2.61173   2.62134
 Alpha virt. eigenvalues --    2.63157   2.63493   2.63985   2.64659   2.65910
 Alpha virt. eigenvalues --    2.66580   2.68444   2.69300   2.70982   2.72291
 Alpha virt. eigenvalues --    2.72714   2.73214   2.73646   2.74427   2.75810
 Alpha virt. eigenvalues --    2.76301   2.76722   2.77739   2.78755   2.79255
 Alpha virt. eigenvalues --    2.80437   2.81152   2.83576   2.84050   2.85326
 Alpha virt. eigenvalues --    2.86776   2.86808   2.87471   2.89229   2.89592
 Alpha virt. eigenvalues --    2.89962   2.90856   2.91045   2.92527   2.93403
 Alpha virt. eigenvalues --    2.94714   2.94944   2.95917   2.97412   2.98336
 Alpha virt. eigenvalues --    2.99348   3.00092   3.02011   3.02820   3.03492
 Alpha virt. eigenvalues --    3.03521   3.04664   3.05373   3.07479   3.08845
 Alpha virt. eigenvalues --    3.10260   3.11251   3.12819   3.13371   3.14969
 Alpha virt. eigenvalues --    3.15655   3.16583   3.17839   3.18597   3.18945
 Alpha virt. eigenvalues --    3.19627   3.20964   3.21918   3.22940   3.23578
 Alpha virt. eigenvalues --    3.23843   3.25318   3.26271   3.27203   3.28488
 Alpha virt. eigenvalues --    3.28694   3.29569   3.30883   3.32775   3.33266
 Alpha virt. eigenvalues --    3.35636   3.36703   3.37336   3.38327   3.39333
 Alpha virt. eigenvalues --    3.40744   3.41693   3.44697   3.44797   3.46185
 Alpha virt. eigenvalues --    3.46531   3.47223   3.47642   3.49104   3.49555
 Alpha virt. eigenvalues --    3.50683   3.51092   3.52500   3.53791   3.55293
 Alpha virt. eigenvalues --    3.55983   3.56769   3.58289   3.58917   3.60340
 Alpha virt. eigenvalues --    3.61973   3.62687   3.63814   3.65029   3.66195
 Alpha virt. eigenvalues --    3.66700   3.67226   3.69305   3.70064   3.71130
 Alpha virt. eigenvalues --    3.71977   3.72206   3.74148   3.75806   3.76645
 Alpha virt. eigenvalues --    3.76931   3.77893   3.80263   3.81467   3.83077
 Alpha virt. eigenvalues --    3.83864   3.85177   3.85804   3.86161   3.87341
 Alpha virt. eigenvalues --    3.89118   3.90599   3.91509   3.92124   3.93502
 Alpha virt. eigenvalues --    3.94770   3.95496   3.96254   3.97916   3.99120
 Alpha virt. eigenvalues --    3.99721   4.00853   4.01944   4.02898   4.03225
 Alpha virt. eigenvalues --    4.05961   4.06201   4.06906   4.09133   4.09548
 Alpha virt. eigenvalues --    4.10433   4.10848   4.11791   4.11932   4.12104
 Alpha virt. eigenvalues --    4.13175   4.13527   4.13900   4.14151   4.14940
 Alpha virt. eigenvalues --    4.15391   4.15609   4.16060   4.17261   4.17688
 Alpha virt. eigenvalues --    4.18760   4.19317   4.19835   4.20240   4.21294
 Alpha virt. eigenvalues --    4.21923   4.22557   4.23898   4.24780   4.25613
 Alpha virt. eigenvalues --    4.26267   4.27102   4.27957   4.29481   4.30598
 Alpha virt. eigenvalues --    4.32110   4.32918   4.33475   4.34947   4.35508
 Alpha virt. eigenvalues --    4.37432   4.38625   4.39108   4.39798   4.41559
 Alpha virt. eigenvalues --    4.42776   4.43176   4.44269   4.44856   4.45948
 Alpha virt. eigenvalues --    4.47080   4.48168   4.50166   4.51518   4.53082
 Alpha virt. eigenvalues --    4.53640   4.54601   4.56489   4.57519   4.58643
 Alpha virt. eigenvalues --    4.61297   4.61770   4.62415   4.62960   4.63898
 Alpha virt. eigenvalues --    4.67709   4.68542   4.70138   4.71016   4.71681
 Alpha virt. eigenvalues --    4.75260   4.77056   4.78702   4.80807   4.81472
 Alpha virt. eigenvalues --    4.85639   4.86273   4.87450   4.88775   4.90991
 Alpha virt. eigenvalues --    4.92709   4.93177   4.94151   4.95246   4.95560
 Alpha virt. eigenvalues --    4.98050   4.98895   5.00037   5.01613   5.02882
 Alpha virt. eigenvalues --    5.04125   5.04841   5.05933   5.07221   5.08408
 Alpha virt. eigenvalues --    5.09444   5.10400   5.11605   5.12320   5.15267
 Alpha virt. eigenvalues --    5.16545   5.17935   5.18472   5.19969   5.20625
 Alpha virt. eigenvalues --    5.22100   5.23758   5.24857   5.26961   5.28318
 Alpha virt. eigenvalues --    5.29864   5.30512   5.32798   5.33211   5.34067
 Alpha virt. eigenvalues --    5.34633   5.35737   5.36945   5.37611   5.38296
 Alpha virt. eigenvalues --    5.38846   5.38946   5.39436   5.39528   5.39821
 Alpha virt. eigenvalues --    5.39987   5.40447   5.40962   5.41463   5.41629
 Alpha virt. eigenvalues --    5.42012   5.42218   5.42508   5.43356   5.44166
 Alpha virt. eigenvalues --    5.44859   5.45226   5.45580   5.46489   5.48841
 Alpha virt. eigenvalues --    5.49536   5.50647   5.51926   5.52719   5.54135
 Alpha virt. eigenvalues --    5.54462   5.54696   5.56299   5.57634   5.58586
 Alpha virt. eigenvalues --    5.58658   5.58992   5.60554   5.60646   5.60849
 Alpha virt. eigenvalues --    5.62428   5.63544   5.64124   5.64752   5.65527
 Alpha virt. eigenvalues --    5.65626   5.66867   5.67879   5.69404   5.69964
 Alpha virt. eigenvalues --    5.71140   5.72840   5.73263   5.76045   5.76495
 Alpha virt. eigenvalues --    5.78463   5.80612   5.82277   5.83293   5.83952
 Alpha virt. eigenvalues --    5.86929   5.87246   5.87911   5.89562   5.90373
 Alpha virt. eigenvalues --    5.92001   5.94799   5.96693   5.98341   5.98979
 Alpha virt. eigenvalues --    6.01081   6.01472   6.02174   6.03649   6.04604
 Alpha virt. eigenvalues --    6.05457   6.06255   6.08521   6.10122   6.10930
 Alpha virt. eigenvalues --    6.11550   6.14753   6.15961   6.16125   6.17550
 Alpha virt. eigenvalues --    6.19673   6.20914   6.21674   6.22892   6.29074
 Alpha virt. eigenvalues --    6.35018   6.40104   6.40320   6.45020   6.49253
 Alpha virt. eigenvalues --    6.49654   6.54140   6.54576   6.55419   6.56928
 Alpha virt. eigenvalues --    6.57116   6.57970   6.59293   6.60221   6.62666
 Alpha virt. eigenvalues --    6.63349   6.64681   6.66094   6.68515   6.70908
 Alpha virt. eigenvalues --    6.72770   6.73043   6.73996   6.75434   6.76324
 Alpha virt. eigenvalues --    6.77376   6.82735   6.83474   6.86667   6.88710
 Alpha virt. eigenvalues --    6.89769   6.91180   6.93586   6.95698   6.96794
 Alpha virt. eigenvalues --    6.97388   6.97795   6.98625   6.99372   7.00092
 Alpha virt. eigenvalues --    7.00554   7.00703   7.01831   7.03179   7.03577
 Alpha virt. eigenvalues --    7.05945   7.10302   7.10926   7.12631   7.13726
 Alpha virt. eigenvalues --    7.16123   7.17940   7.18301   7.19510   7.19654
 Alpha virt. eigenvalues --    7.21622   7.23152   7.23882   7.25863   7.26935
 Alpha virt. eigenvalues --    7.28657   7.32588   7.37117   7.44630   7.47764
 Alpha virt. eigenvalues --    7.48529   7.51385   7.52242   7.56163   7.63924
 Alpha virt. eigenvalues --    7.66097   7.70427   7.75826   7.78366   9.72947
 Alpha virt. eigenvalues --    9.84106   9.91173   9.95388  10.39998  10.49758
 Alpha virt. eigenvalues --   10.72406  11.23042  11.35395  11.75865  11.93282
 Alpha virt. eigenvalues --   12.12587  12.54438  12.82352  13.11711  13.16805
 Alpha virt. eigenvalues --   13.59600  13.66535  13.93538
          Condensed to atoms (all electrons):
               1          2          3          4          5          6
     1  C    4.688020   0.384573   0.378017   0.397084   0.330883  -0.040568
     2  H    0.384573   0.690679  -0.066139  -0.028445  -0.042326   0.001209
     3  H    0.378017  -0.066139   0.724292  -0.050559  -0.052468   0.004603
     4  H    0.397084  -0.028445  -0.050559   0.593680  -0.039303  -0.012686
     5  O    0.330883  -0.042326  -0.052468  -0.039303   7.960744   0.302033
     6  C   -0.040568   0.001209   0.004603  -0.012686   0.302033   4.645793
     7  H    0.001161   0.002454  -0.002625   0.004060  -0.051229   0.422649
     8  C    0.001342  -0.001297   0.003649  -0.001539  -0.066599   0.179949
     9  H   -0.000030   0.000071  -0.000078  -0.000035   0.003608  -0.006622
    10  N    0.000607   0.000189  -0.000043  -0.000283  -0.012423  -0.039069
    11  H   -0.001099  -0.000557   0.000177   0.000360   0.027321  -0.016710
    12  S    0.000144   0.000028  -0.000020  -0.000002   0.000039  -0.002358
    13  O    0.000000   0.000000   0.000028   0.000000  -0.000156  -0.000091
    14  O    0.000001   0.000000   0.000000   0.000000  -0.000001   0.000710
    15  O   -0.000008  -0.000001  -0.000001   0.000000  -0.000054  -0.001043
    16  C   -0.000386   0.000234  -0.001438   0.000414   0.010182  -0.014397
    17  H   -0.000326   0.000200  -0.001511   0.000351   0.008143   0.010262
    18  O    0.000022   0.000000  -0.000014   0.000005   0.000031   0.002192
    19  H    0.000007   0.000001  -0.000006   0.000003   0.000028  -0.001112
    20  C   -0.001246  -0.000172   0.001998   0.000725  -0.006561   0.016935
    21  H   -0.000132   0.000000   0.000030  -0.000136   0.000080   0.004323
    22  O   -0.000012   0.000000  -0.000073  -0.000032   0.000027  -0.000405
    23  H   -0.000004   0.000000   0.000006   0.000009   0.000000  -0.000028
    24  C   -0.003036   0.000493  -0.000631  -0.011549   0.007952  -0.052935
    25  H   -0.002024  -0.000067   0.002131  -0.005842   0.003294   0.001035
    26  O   -0.014769  -0.000601   0.000902   0.022001  -0.058654   0.371147
    27  C   -0.000300   0.000036  -0.000141  -0.002234   0.000777   0.002261
    28  H   -0.000169   0.000005  -0.000072   0.000254   0.000053   0.000120
    29  H   -0.000027   0.000008  -0.000017  -0.000072   0.000073   0.000336
    30  O   -0.002954   0.000082  -0.000329   0.011503   0.000031  -0.000092
    31  S   -0.000379   0.000005  -0.000026   0.001443   0.000002   0.000053
    32  O   -0.000093  -0.000001  -0.000007   0.000765   0.000000  -0.000006
    33  O   -0.000008   0.000000  -0.000001  -0.000021   0.000000   0.000095
    34  O    0.000000   0.000000   0.000000   0.000018   0.000000   0.000001
               7          8          9         10         11         12
     1  C    0.001161   0.001342  -0.000030   0.000607  -0.001099   0.000144
     2  H    0.002454  -0.001297   0.000071   0.000189  -0.000557   0.000028
     3  H   -0.002625   0.003649  -0.000078  -0.000043   0.000177  -0.000020
     4  H    0.004060  -0.001539  -0.000035  -0.000283   0.000360  -0.000002
     5  O   -0.051229  -0.066599   0.003608  -0.012423   0.027321   0.000039
     6  C    0.422649   0.179949  -0.006622  -0.039069  -0.016710  -0.002358
     7  H    0.665007  -0.076497  -0.012810   0.005668  -0.000882   0.000115
     8  C   -0.076497   5.384110   0.332626   0.334042  -0.045196  -0.014986
     9  H   -0.012810   0.332626   0.664539  -0.028969   0.003377   0.000267
    10  N    0.005668   0.334042  -0.028969   6.793343   0.325112   0.231061
    11  H   -0.000882  -0.045196   0.003377   0.325112   0.585526   0.003613
    12  S    0.000115  -0.014986   0.000267   0.231061   0.003613  12.751035
    13  O    0.000135  -0.015625  -0.000694  -0.077481   0.001027   0.681852
    14  O   -0.000012   0.010765   0.002866  -0.075907   0.003496   0.728620
    15  O   -0.000035   0.000526  -0.000240  -0.089195   0.022127   0.709567
    16  C    0.016247   0.142856  -0.051333  -0.054880   0.000304  -0.012106
    17  H   -0.000068  -0.087846   0.010708   0.007086  -0.000654   0.002863
    18  O   -0.000208  -0.034255   0.010724  -0.000306  -0.000125   0.002775
    19  H    0.000100   0.011317  -0.000420  -0.000578   0.000073  -0.000237
    20  C   -0.001192  -0.038768  -0.008716   0.003585  -0.000595  -0.000570
    21  H   -0.001192  -0.001007   0.011216   0.000659  -0.000048  -0.000159
    22  O    0.000025   0.003595  -0.000283  -0.000044   0.000008  -0.000009
    23  H   -0.000016  -0.000868   0.000089   0.000013  -0.000003   0.000003
    24  C    0.003406  -0.006574   0.000805  -0.000419  -0.000078  -0.000041
    25  H   -0.001007  -0.001406   0.000544   0.000235  -0.000040  -0.000070
    26  O   -0.045169  -0.036980   0.001299   0.002147   0.001405   0.000040
    27  C   -0.000621  -0.003776   0.000629   0.000012  -0.000009  -0.000004
    28  H    0.000055   0.000038   0.000008   0.000002  -0.000001   0.000000
    29  H   -0.000154  -0.000148   0.000111   0.000001   0.000000   0.000000
    30  O    0.000120   0.000010   0.000001   0.000000   0.000000   0.000000
    31  S    0.000028   0.000004   0.000000   0.000000   0.000000   0.000000
    32  O   -0.000001   0.000000   0.000000   0.000000   0.000000   0.000000
    33  O    0.000042   0.000003   0.000001   0.000000   0.000000   0.000000
    34  O    0.000000   0.000000   0.000000   0.000000   0.000000   0.000000
              13         14         15         16         17         18
     1  C    0.000000   0.000001  -0.000008  -0.000386  -0.000326   0.000022
     2  H    0.000000   0.000000  -0.000001   0.000234   0.000200   0.000000
     3  H    0.000028   0.000000  -0.000001  -0.001438  -0.001511  -0.000014
     4  H    0.000000   0.000000   0.000000   0.000414   0.000351   0.000005
     5  O   -0.000156  -0.000001  -0.000054   0.010182   0.008143   0.000031
     6  C   -0.000091   0.000710  -0.001043  -0.014397   0.010262   0.002192
     7  H    0.000135  -0.000012  -0.000035   0.016247  -0.000068  -0.000208
     8  C   -0.015625   0.010765   0.000526   0.142856  -0.087846  -0.034255
     9  H   -0.000694   0.002866  -0.000240  -0.051333   0.010708   0.010724
    10  N   -0.077481  -0.075907  -0.089195  -0.054880   0.007086  -0.000306
    11  H    0.001027   0.003496   0.022127   0.000304  -0.000654  -0.000125
    12  S    0.681852   0.728620   0.709567  -0.012106   0.002863   0.002775
    13  O    8.093011  -0.068997  -0.073158   0.013247   0.022256  -0.003655
    14  O   -0.068997   8.043824  -0.068964  -0.007664   0.000435  -0.000267
    15  O   -0.073158  -0.068964   8.089177  -0.000659   0.000033  -0.000053
    16  C    0.013247  -0.007664  -0.000659   5.077900   0.357952   0.320544
    17  H    0.022256   0.000435   0.000033   0.357952   0.643916  -0.044447
    18  O   -0.003655  -0.000267  -0.000053   0.320544  -0.044447   7.757965
    19  H    0.000309   0.000465   0.000002  -0.067605  -0.001043   0.324671
    20  C    0.000981  -0.000078  -0.000014   0.324981  -0.027092  -0.041160
    21  H   -0.000064  -0.000024   0.000000  -0.067840   0.011715   0.008996
    22  O    0.000000   0.000000   0.000000  -0.047415  -0.000107  -0.003999
    23  H    0.000000   0.000000   0.000000   0.004216  -0.000291   0.000280
    24  C   -0.000135   0.000002   0.000002  -0.082363   0.009876   0.011771
    25  H   -0.000076   0.000000   0.000000  -0.009892   0.002157  -0.000011
    26  O    0.000005   0.000000   0.000000   0.000287  -0.000052  -0.000173
    27  C   -0.000001   0.000000   0.000000   0.004477   0.000651  -0.000185
    28  H    0.000000   0.000000   0.000000   0.000139   0.000032  -0.000034
    29  H    0.000000   0.000000   0.000000   0.000586  -0.000104  -0.000032
    30  O    0.000000   0.000000   0.000000  -0.000133  -0.000008   0.000000
    31  S    0.000000   0.000000   0.000000  -0.000056  -0.000001   0.000000
    32  O    0.000000   0.000000   0.000000   0.000000   0.000000   0.000000
    33  O    0.000000   0.000000   0.000000  -0.000004   0.000000   0.000000
    34  O    0.000000   0.000000   0.000000   0.000000   0.000000   0.000000
              19         20         21         22         23         24
     1  C    0.000007  -0.001246  -0.000132  -0.000012  -0.000004  -0.003036
     2  H    0.000001  -0.000172   0.000000   0.000000   0.000000   0.000493
     3  H   -0.000006   0.001998   0.000030  -0.000073   0.000006  -0.000631
     4  H    0.000003   0.000725  -0.000136  -0.000032   0.000009  -0.011549
     5  O    0.000028  -0.006561   0.000080   0.000027   0.000000   0.007952
     6  C   -0.001112   0.016935   0.004323  -0.000405  -0.000028  -0.052935
     7  H    0.000100  -0.001192  -0.001192   0.000025  -0.000016   0.003406
     8  C    0.011317  -0.038768  -0.001007   0.003595  -0.000868  -0.006574
     9  H   -0.000420  -0.008716   0.011216  -0.000283   0.000089   0.000805
    10  N   -0.000578   0.003585   0.000659  -0.000044   0.000013  -0.000419
    11  H    0.000073  -0.000595  -0.000048   0.000008  -0.000003  -0.000078
    12  S   -0.000237  -0.000570  -0.000159  -0.000009   0.000003  -0.000041
    13  O    0.000309   0.000981  -0.000064   0.000000   0.000000  -0.000135
    14  O    0.000465  -0.000078  -0.000024   0.000000   0.000000   0.000002
    15  O    0.000002  -0.000014   0.000000   0.000000   0.000000   0.000002
    16  C   -0.067605   0.324981  -0.067840  -0.047415   0.004216  -0.082363
    17  H   -0.001043  -0.027092   0.011715  -0.000107  -0.000291   0.009876
    18  O    0.324671  -0.041160   0.008996  -0.003999   0.000280   0.011771
    19  H    0.562257  -0.007096  -0.000301   0.028360  -0.001568   0.005665
    20  C   -0.007096   5.091548   0.372137   0.315159  -0.033375   0.125302
    21  H   -0.000301   0.372137   0.717647  -0.058662  -0.016961  -0.034486
    22  O    0.028360   0.315159  -0.058662   7.814114   0.340767  -0.073219
    23  H   -0.001568  -0.033375  -0.016961   0.340767   0.516512   0.000548
    24  C    0.005665   0.125302  -0.034486  -0.073219   0.000548   5.346392
    25  H   -0.000080  -0.040375   0.014687   0.008450  -0.001536   0.329758
    26  O   -0.000083  -0.034238   0.004950   0.002401  -0.000375   0.259977
    27  C   -0.000569  -0.036183  -0.007671   0.013003   0.003934   0.156379
    28  H   -0.000156   0.008553   0.002217   0.018731  -0.000164  -0.077553
    29  H   -0.000008   0.011098   0.002602  -0.000062  -0.000217  -0.061716
    30  O    0.000000   0.000307   0.000160   0.000142  -0.000049  -0.025016
    31  S    0.000000  -0.001147  -0.000069   0.000032  -0.000006   0.001653
    32  O    0.000000  -0.000021   0.000000   0.000000   0.000000  -0.000796
    33  O    0.000000   0.000018  -0.000097   0.000000   0.000000  -0.002297
    34  O    0.000000  -0.000001  -0.000005   0.000000  -0.000005   0.003838
              25         26         27         28         29         30
     1  C   -0.002024  -0.014769  -0.000300  -0.000169  -0.000027  -0.002954
     2  H   -0.000067  -0.000601   0.000036   0.000005   0.000008   0.000082
     3  H    0.002131   0.000902  -0.000141  -0.000072  -0.000017  -0.000329
     4  H   -0.005842   0.022001  -0.002234   0.000254  -0.000072   0.011503
     5  O    0.003294  -0.058654   0.000777   0.000053   0.000073   0.000031
     6  C    0.001035   0.371147   0.002261   0.000120   0.000336  -0.000092
     7  H   -0.001007  -0.045169  -0.000621   0.000055  -0.000154   0.000120
     8  C   -0.001406  -0.036980  -0.003776   0.000038  -0.000148   0.000010
     9  H    0.000544   0.001299   0.000629   0.000008   0.000111   0.000001
    10  N    0.000235   0.002147   0.000012   0.000002   0.000001   0.000000
    11  H   -0.000040   0.001405  -0.000009  -0.000001   0.000000   0.000000
    12  S   -0.000070   0.000040  -0.000004   0.000000   0.000000   0.000000
    13  O   -0.000076   0.000005  -0.000001   0.000000   0.000000   0.000000
    14  O    0.000000   0.000000   0.000000   0.000000   0.000000   0.000000
    15  O    0.000000   0.000000   0.000000   0.000000   0.000000   0.000000
    16  C   -0.009892   0.000287   0.004477   0.000139   0.000586  -0.000133
    17  H    0.002157  -0.000052   0.000651   0.000032  -0.000104  -0.000008
    18  O   -0.000011  -0.000173  -0.000185  -0.000034  -0.000032   0.000000
    19  H   -0.000080  -0.000083  -0.000569  -0.000156  -0.000008   0.000000
    20  C   -0.040375  -0.034238  -0.036183   0.008553   0.011098   0.000307
    21  H    0.014687   0.004950  -0.007671   0.002217   0.002602   0.000160
    22  O    0.008450   0.002401   0.013003   0.018731  -0.000062   0.000142
    23  H   -0.001536  -0.000375   0.003934  -0.000164  -0.000217  -0.000049
    24  C    0.329758   0.259977   0.156379  -0.077553  -0.061716  -0.025016
    25  H    0.710738  -0.046453  -0.039142  -0.001757   0.013812   0.006248
    26  O   -0.046453   7.891944  -0.019480   0.004215   0.004173   0.000301
    27  C   -0.039142  -0.019480   4.907665   0.384444   0.358315   0.298643
    28  H   -0.001757   0.004215   0.384444   0.698187  -0.061779  -0.040546
    29  H    0.013812   0.004173   0.358315  -0.061779   0.710829  -0.050787
    30  O    0.006248   0.000301   0.298643  -0.040546  -0.050787   8.055333
    31  S    0.000125   0.000913  -0.050791   0.000305   0.000234   0.296546
    32  O   -0.000021   0.000004  -0.002443  -0.000095   0.000554  -0.060174
    33  O    0.000155   0.000217  -0.016911  -0.000196   0.031144  -0.059397
    34  O    0.000012  -0.000003   0.003204   0.009876  -0.000002  -0.059640
              31         32         33         34
     1  C   -0.000379  -0.000093  -0.000008   0.000000
     2  H    0.000005  -0.000001   0.000000   0.000000
     3  H   -0.000026  -0.000007  -0.000001   0.000000
     4  H    0.001443   0.000765  -0.000021   0.000018
     5  O    0.000002   0.000000   0.000000   0.000000
     6  C    0.000053  -0.000006   0.000095   0.000001
     7  H    0.000028  -0.000001   0.000042   0.000000
     8  C    0.000004   0.000000   0.000003   0.000000
     9  H    0.000000   0.000000   0.000001   0.000000
    10  N    0.000000   0.000000   0.000000   0.000000
    11  H    0.000000   0.000000   0.000000   0.000000
    12  S    0.000000   0.000000   0.000000   0.000000
    13  O    0.000000   0.000000   0.000000   0.000000
    14  O    0.000000   0.000000   0.000000   0.000000
    15  O    0.000000   0.000000   0.000000   0.000000
    16  C   -0.000056   0.000000  -0.000004   0.000000
    17  H   -0.000001   0.000000   0.000000   0.000000
    18  O    0.000000   0.000000   0.000000   0.000000
    19  H    0.000000   0.000000   0.000000   0.000000
    20  C   -0.001147  -0.000021   0.000018  -0.000001
    21  H   -0.000069   0.000000  -0.000097  -0.000005
    22  O    0.000032   0.000000   0.000000   0.000000
    23  H   -0.000006   0.000000   0.000000  -0.000005
    24  C    0.001653  -0.000796  -0.002297   0.003838
    25  H    0.000125  -0.000021   0.000155   0.000012
    26  O    0.000913   0.000004   0.000217  -0.000003
    27  C   -0.050791  -0.002443  -0.016911   0.003204
    28  H    0.000305  -0.000095  -0.000196   0.009876
    29  H    0.000234   0.000554   0.031144  -0.000002
    30  O    0.296546  -0.060174  -0.059397  -0.059640
    31  S   12.674323   0.742993   0.702821   0.694941
    32  O    0.742993   8.012150  -0.069331  -0.070738
    33  O    0.702821  -0.069331   8.050794  -0.074394
    34  O    0.694941  -0.070738  -0.074394   8.072886
 Mulliken charges:
               1
     1  C   -0.114291
     2  H    0.059338
     3  H    0.060364
     4  H    0.120062
     5  O   -0.325526
     6  C    0.222418
     7  H    0.072446
     8  C    0.028534
     9  H    0.066742
    10  N   -0.324164
    11  H    0.092071
    12  S    0.918538
    13  O   -0.572717
    14  O   -0.569269
    15  O   -0.588008
    16  C    0.143605
    17  H    0.074915
    18  O   -0.311054
    19  H    0.147603
    20  C    0.005273
    21  H    0.037434
    22  O   -0.360494
    23  H    0.189088
    24  C    0.169024
    25  H    0.056417
    26  O   -0.311300
    27  C    0.046030
    28  H    0.055289
    29  H    0.041248
    30  O   -0.370305
    31  S    0.936053
    32  O   -0.552740
    33  O   -0.562635
    34  O   -0.579990
 Sum of Mulliken charges =  -2.00000
 Mulliken charges with hydrogens summed into heavy atoms:
               1
     1  C    0.125473
     5  O   -0.325526
     6  C    0.294864
     8  C    0.095276
    10  N   -0.232093
    12  S    0.918538
    13  O   -0.572717
    14  O   -0.569269
    15  O   -0.588008
    16  C    0.218521
    18  O   -0.163451
    20  C    0.042707
    22  O   -0.171406
    24  C    0.225441
    26  O   -0.311300
    27  C    0.142567
    30  O   -0.370305
    31  S    0.936053
    32  O   -0.552740
    33  O   -0.562635
    34  O   -0.579990
 DipInt: DoE/N= T F RetVal/Mat= T F Init=T NMatP=  1 IDeriv=0 Min/MaxMlt=  0  4
 Entering OneElI...
 OneElI was handed   131996621 working-precision words.
 Multipole integrals L=0 to 4 MinM= 0 MaxM= 0.
 Requested accuracy = 0.1000D-12
 ShPair: Thresh= 1.00D-13 NBox=     0 BxSize= 0.00D+00 RnKept= 1.88D+01
         NSMCal=                42778 NSMKep=               32755
 PrsmSu:  NPrtUS=   1 ThrOK=F IAlg=1 NPAlg=1 LenDen=           0.
 Prism:   IPart=     0 DynPar=F LinDyn=F Incr=         327.
 PRISM was handed   129448902 working-precision words and 32755 shell-pairs
 IPart=  0 NShTot=       32755 NBatch=         230 AvBLen=       142.4
 PrSmSu:  NxtVal=            328.
 Electronic moments (au):
       -184.00000000          0.61762510          1.26275551         -0.45181204
      -7878.67258909      -1208.45160290       -469.25932504          2.30568541
         -2.06079973          2.06007558      -6001.76998558       -604.21697520
        -22.98331467        638.75528303       2420.95570911      -2036.62865490
        -26.60086866        202.39450915        916.63907916         66.22818141
    -614107.63641343     -22489.66287098      -3794.23943356      -3278.14486668
       -966.02677709        709.26110058       -565.48339117      -1936.41161531
       -325.86286040     -28320.57004008     -17820.88724836      -3581.69072025
       -456.45898746       1406.21307560       1025.81571679
 Electronic spatial extent (au):  <R**2>=           9556.3835
 DipInt: DoE/N= F T RetVal/Mat= T F Init=T NMatP=  1 IDeriv=0 Min/MaxMlt=  0  4
 Nuclear    moments (au):
        182.00000000          0.00000000          0.00000000          0.00000000
       7593.14182283       1099.42875423        354.45850507          0.00000000
          0.00000000          0.00000000       5940.57241641        668.99592033
          9.80641250       -623.06605172      -2339.04441693       1983.24033471
         33.19859363       -208.38868841       -908.84632080        -58.18146794
     571830.28056250      18899.06290476       2142.35889831       2984.49406232
       1295.65607260       -787.50171704        582.41688240       1818.00426654
        343.96812105      22238.35034427      12515.34389292       2604.26979273
        355.09740533      -1336.47394066       -972.95548062
 Total      moments (au):
         -2.00000000          0.61762510          1.26275551         -0.45181204
       -285.53076626       -109.02284867       -114.80081997          2.30568541
         -2.06079973          2.06007558        -61.19756916         64.77894513
        -13.17690216         15.68923131         81.91129218        -53.38832018
          6.59772497         -5.99417927          7.79275836          8.04671347
     -42277.35585093      -3590.59996622      -1651.88053525       -293.65080436
        329.62929550        -78.24061646         16.93349123       -118.40734876
         18.10526066      -6082.21969581      -5305.54335544       -977.42092752
       -101.36158213         69.73913494         52.86023617
 Traceless Quadrup. (au):
       -115.74595463         60.76196297         54.98399166          2.30568541
         -2.06079973          2.06007558
 Charge=             -2.0000 electrons
 Dipole moment (field-independent basis, Debye):
    X=              1.5698    Y=              3.2096    Z=             -1.1484  Tot=              3.7530
 Quadrupole moment (field-independent basis, Debye-Ang):
   XX=           -384.0486   YY=           -146.6395   ZZ=           -154.4110
   XY=              3.1012   XZ=             -2.7718   YZ=              2.7709
 Traceless Quadrupole moment (field-independent basis, Debye-Ang):
   XX=           -155.6823   YY=             81.7269   ZZ=             73.9553
   XY=              3.1012   XZ=             -2.7718   YZ=              2.7709
 Octapole moment (field-independent basis, Debye-Ang**2):
  XXX=            -43.5581  YYY=             46.1072  ZZZ=             -9.3788  XYY=             11.1670
  XXY=             58.3013  XXZ=            -37.9997  XZZ=              4.6960  YZZ=             -4.2664
  YYZ=              5.5466  XYZ=              5.7273
 Hexadecapole moment (field-independent basis, Debye-Ang**3):
 XXXX=         -15923.6784 YYYY=          -1352.3920 ZZZZ=           -622.1774 XXXY=           -110.6030
 XXXZ=            124.1542 YYYX=            -29.4692 YYYZ=              6.3780 ZZZX=            -44.5979
 ZZZY=              6.8193 XXYY=          -2290.8554 XXZZ=          -1998.3219 YYZZ=           -368.1436
 XXYZ=            -38.1776 YYXZ=             26.2671 ZZXY=             19.9097
 N-N= 2.327570621482D+03 E-N=-9.311244240076D+03  KE= 1.945320121049D+03
 Entering OneElI...
 OneElI was handed   132642786 working-precision words.
 Calculate electrostatic properties
    NBasis =   820  MinDer = 0  MaxDer = 0
    NGrid  =    34  NMatD  =   1
 Requested accuracy = 0.1000D-12
 PrtBox:  NBox=     1 Levels=  1 BoxLen=   36.89 SMaxX=       19.81
          Shift=            9.708895            6.526120            4.259869
 Box      1 Number                   0 centers from      1 to    292:
 ShPair: Thresh= 1.00D-13 NBox=     1 BxSize= 3.69D+01 RnKept= 1.88D+01
         NSMCal=                42778 NSMKep=               28588
 PrsmSu:  NPrtUS=   1 ThrOK=F IAlg=1 NPAlg=1 LenDen=           0.
 Prism:   IPart=     0 DynPar=F LinDyn=F Incr=         512.
 PRISM was handed   130361483 working-precision words and 28588 shell-pairs
 IPart=  0 NShTot=      971992 NBatch=       28718 AvBLen=        33.8
 PrSmSu:  NxtVal=            513.
 --------------------------------------------------------
       Center         ----      EFG at Nuclei      ----
                      3XX-RR        3YY-RR        3ZZ-RR
 --------------------------------------------------------
     1   Atom       -0.063579      0.076063     -0.012484
     2   Atom        0.131666     -0.268718      0.137051
     3   Atom        0.147313      0.050382     -0.197695
     4   Atom       -0.206057      0.145433      0.060624
     5   Atom       -0.058937      0.652485     -0.593548
     6   Atom       -0.088318      0.083929      0.004389
     7   Atom        0.144253     -0.004923     -0.139330
     8   Atom       -0.142592      0.031343      0.111249
     9   Atom        0.136493      0.074657     -0.211150
    10   Atom       -0.636483     -0.414639      1.051122
    11   Atom        0.154814     -0.280304      0.125490
    12   Atom       -0.498160      0.313020      0.185141
    13   Atom        0.461525      0.595188     -1.056713
    14   Atom        0.241231     -0.174429     -0.066802
    15   Atom        0.014137     -0.826975      0.812838
    16   Atom       -0.087310     -0.117036      0.204346
    17   Atom        0.135300      0.104424     -0.239724
    18   Atom        0.275524     -1.773370      1.497846
    19   Atom        0.076155     -0.329757      0.253602
    20   Atom        0.227028     -0.163523     -0.063506
    21   Atom        0.141983      0.085770     -0.227754
    22   Atom        1.368923     -1.397618      0.028696
    23   Atom        0.196268     -0.244238      0.047971
    24   Atom        0.166620     -0.124827     -0.041793
    25   Atom        0.143381      0.085690     -0.229070
    26   Atom       -0.486889      0.085170      0.401719
    27   Atom       -0.091116     -0.121786      0.212902
    28   Atom        0.132821     -0.131958     -0.000863
    29   Atom        0.131042      0.113187     -0.244229
    30   Atom       -1.022282      0.098595      0.923687
    31   Atom       -0.670961      0.482609      0.188352
    32   Atom        0.158856     -0.494125      0.335269
    33   Atom        0.413092      0.782431     -1.195523
    34   Atom        0.172699     -0.868800      0.696101
 --------------------------------------------------------
                        XY            XZ            YZ
 --------------------------------------------------------
     1   Atom        0.173888      0.281806     -0.123863
     2   Atom       -0.074852     -0.001397     -0.072471
     3   Atom        0.008315      0.008850      0.179668
     4   Atom       -0.032467     -0.161126     -0.023613
     5   Atom        0.318268      0.691611     -1.678827
     6   Atom       -0.247300     -0.035808     -0.260334
     7   Atom       -0.006778      0.001036      0.202852
     8   Atom       -0.068150      0.005848      0.029272
     9   Atom       -0.024726     -0.045955     -0.155180
    10   Atom       -0.058892     -0.370280     -0.221096
    11   Atom        0.080481      0.023420     -0.249987
    12   Atom        0.210807     -0.388354      0.133159
    13   Atom       -0.093458      0.276929      0.633813
    14   Atom        0.531463      0.390513     -0.918143
    15   Atom       -0.809240     -0.088305      0.023784
    16   Atom        0.211623      0.077430     -0.062476
    17   Atom       -0.011799     -0.065577     -0.118769
    18   Atom        0.221114      0.724150     -0.105126
    19   Atom       -0.302049      0.098932      0.144207
    20   Atom       -0.063384      0.052788      0.285540
    21   Atom       -0.021707     -0.051385     -0.124235
    22   Atom       -0.977539     -0.191315      0.263503
    23   Atom       -0.233932     -0.143676     -0.301297
    24   Atom       -0.062735      0.082676      0.274508
    25   Atom       -0.023280     -0.049302     -0.134961
    26   Atom       -1.213693      0.234760      1.230044
    27   Atom        0.232044      0.070203     -0.115417
    28   Atom       -0.054452      0.051192      0.203103
    29   Atom       -0.006123     -0.055234     -0.114805
    30   Atom        1.219328     -0.577493     -0.608562
    31   Atom        0.028434     -0.588016      0.057260
    32   Atom        0.709532      0.253184     -0.748812
    33   Atom        0.033793      0.329030      0.260391
    34   Atom       -0.704237      0.091849      0.419790
 --------------------------------------------------------


 ---------------------------------------------------------------------------------
              Nuclear Quadrupole Coupling Constant in Principal Axis System
 ---------------------------------------------------------------------------------

       Atom             a.u.   MegaHertz   Gauss  10(-4) cm-1        Axes

              Baa    -0.7482     3.594     1.282     1.199  0.9216  0.3140  0.2282
    10 N(14)  Bbb    -0.4072     1.956     0.698     0.652 -0.3347  0.9406  0.0576
              Bcc     1.1555    -5.549    -1.980    -1.851 -0.1966 -0.1295  0.9719
 

 ---------------------------------------------------------------------------------

 No NMR shielding tensors so no spin-rotation constants.
 Leave Link  601 at Fri Feb 21 10:32:14 2020, MaxMem=   134217728 cpu:         1.3
 FitSet:  NAtFit=    34 NAtPot=    34 NAtFrz=     0 MDM=    38 TotChg=  -2.00000
 Breneman (CHELPG) radii used.
 Atom Element Radius
    1     6    1.50
    2     1    1.45
    3     1    1.45
    4     1    1.45
    5     8    1.70
    6     6    1.50
    7     1    1.45
    8     6    1.50
    9     1    1.45
   10     7    1.70
   11     1    1.45
   12    16    2.00
   13     8    1.70
   14     8    1.70
   15     8    1.70
   16     6    1.50
   17     1    1.45
   18     8    1.70
   19     1    1.45
   20     6    1.50
   21     1    1.45
   22     8    1.70
   23     1    1.45
   24     6    1.50
   25     1    1.45
   26     8    1.70
   27     6    1.50
   28     1    1.45
   29     1    1.45
   30     8    1.70
   31    16    2.00
   32     8    1.70
   33     8    1.70
   34     8    1.70
 Generate Potential Derived Charges using the Breneman model, NDens= 1.
 Grid spacing= 0.300 Box extension= 2.800
 NStep X,Y,Z=   54     43     34   Total possible points=       78948
 Number of Points to Fit=   18250
 Approximate Molecular Volume= 1553.65 A**3

 **********************************************************************

            Electrostatic Properties Using The SCF Density

 **********************************************************************

       Atomic Center    1 is at   0.240316 -2.399320 -1.294912
       Atomic Center    2 is at   0.049115 -3.453474 -1.468075
       Atomic Center    3 is at   0.246957 -1.893370 -2.254226
       Atomic Center    4 is at   1.207407 -2.286050 -0.828890
       Atomic Center    5 is at  -0.802381 -1.901042 -0.500617
       Atomic Center    6 is at  -0.547002 -1.100385  0.620728
       Atomic Center    7 is at  -0.554196 -1.734301  1.498660
       Atomic Center    8 is at  -1.667348 -0.044689  0.765590
       Atomic Center    9 is at  -1.546260  0.390943  1.753768
       Atomic Center   10 is at  -2.930192 -0.782451  0.746720
       Atomic Center   11 is at  -2.789125 -1.668967  0.308016
       Atomic Center   12 is at  -4.409364 -0.265073  0.085999
       Atomic Center   13 is at  -4.145209  0.223365 -1.255794
       Atomic Center   14 is at  -4.927175  0.735051  0.991687
       Atomic Center   15 is at  -5.137726 -1.522121  0.094940
       Atomic Center   16 is at  -1.458617  1.114495 -0.221391
       Atomic Center   17 is at  -1.656369  0.798567 -1.237387
       Atomic Center   18 is at  -2.295845  2.183377  0.124243
       Atomic Center   19 is at  -1.841238  2.984615 -0.088448
       Atomic Center   20 is at  -0.009635  1.590340 -0.089611
       Atomic Center   21 is at   0.130033  1.938366  0.931941
       Atomic Center   22 is at   0.199445  2.673723 -0.983911
       Atomic Center   23 is at   0.530235  3.418700 -0.506752
       Atomic Center   24 is at   0.982025  0.470129 -0.338915
       Atomic Center   25 is at   0.850503  0.096067 -1.347758
       Atomic Center   26 is at   0.717610 -0.536307  0.609866
       Atomic Center   27 is at   2.424167  0.911521 -0.169015
       Atomic Center   28 is at   2.618566  1.767260 -0.802620
       Atomic Center   29 is at   2.585937  1.188524  0.865115
       Atomic Center   30 is at   3.279514 -0.140317 -0.530168
       Atomic Center   31 is at   4.725404 -0.212984  0.221804
       Atomic Center   32 is at   5.330622 -1.351091 -0.417828
       Atomic Center   33 is at   4.417884 -0.385346  1.621822
       Atomic Center   34 is at   5.343222  1.061537 -0.080499
      ESP Fit Center   35 is at  -7.697252 -2.417387 -0.400229
      ESP Fit Center   36 is at  -7.697252 -2.417387 -0.100229
      ESP Fit Center   37 is at  -7.697252 -2.417387  0.199771
      ESP Fit Center   38 is at  -7.697252 -2.417387  0.499771
      ESP Fit Center   39 is at  -7.697252 -2.117387 -0.700229
      ESP Fit Center   40 is at  -7.697252 -2.117387 -0.400229
      ESP Fit Center   41 is at  -7.697252 -2.117387 -0.100229
      ESP Fit Center   42 is at  -7.697252 -2.117387  0.199771
      ESP Fit Center   43 is at  -7.697252 -2.117387  0.499771
      ESP Fit Center   44 is at  -7.697252 -2.117387  0.799771
      ESP Fit Center   45 is at  -7.697252 -1.817387 -1.000229
      ESP Fit Center   46 is at  -7.697252 -1.817387 -0.700229
      ESP Fit Center   47 is at  -7.697252 -1.817387 -0.400229
      ESP Fit Center   48 is at  -7.697252 -1.817387 -0.100229
      ESP Fit Center   49 is at  -7.697252 -1.817387  0.199771
      ESP Fit Center   50 is at  -7.697252 -1.817387  0.499771
      ESP Fit Center   51 is at  -7.697252 -1.817387  0.799771
      ESP Fit Center   52 is at  -7.697252 -1.817387  1.099771
      ESP Fit Center   53 is at  -7.697252 -1.517387 -1.000229
      ESP Fit Center   54 is at  -7.697252 -1.517387 -0.700229
      ESP Fit Center   55 is at  -7.697252 -1.517387 -0.400229
      ESP Fit Center   56 is at  -7.697252 -1.517387 -0.100229
      ESP Fit Center   57 is at  -7.697252 -1.517387  0.199771
      ESP Fit Center   58 is at  -7.697252 -1.517387  0.499771
      ESP Fit Center   59 is at  -7.697252 -1.517387  0.799771
      ESP Fit Center   60 is at  -7.697252 -1.517387  1.099771
      ESP Fit Center   61 is at  -7.697252 -1.217387 -0.700229
      ESP Fit Center   62 is at  -7.697252 -1.217387 -0.400229
      ESP Fit Center   63 is at  -7.697252 -1.217387 -0.100229
      ESP Fit Center   64 is at  -7.697252 -1.217387  0.199771
      ESP Fit Center   65 is at  -7.697252 -1.217387  0.499771
      ESP Fit Center   66 is at  -7.697252 -1.217387  0.799771
      ESP Fit Center   67 is at  -7.697252 -1.217387  1.099771
      ESP Fit Center   68 is at  -7.697252 -0.917387 -0.700229
      ESP Fit Center   69 is at  -7.697252 -0.917387 -0.400229
      ESP Fit Center   70 is at  -7.697252 -0.917387 -0.100229
      ESP Fit Center   71 is at  -7.697252 -0.917387  0.199771
      ESP Fit Center   72 is at  -7.697252 -0.917387  0.499771
      ESP Fit Center   73 is at  -7.697252 -0.917387  0.799771
      ESP Fit Center   74 is at  -7.697252 -0.617387 -0.400229
      ESP Fit Center   75 is at  -7.697252 -0.617387 -0.100229
      ESP Fit Center   76 is at  -7.697252 -0.617387  0.199771
      ESP Fit Center   77 is at  -7.697252 -0.617387  0.499771
      ESP Fit Center   78 is at  -7.697252  0.582613  0.799771
      ESP Fit Center   79 is at  -7.697252  0.582613  1.099771
      ESP Fit Center   80 is at  -7.697252  0.882613  0.799771
      ESP Fit Center   81 is at  -7.697252  0.882613  1.099771
      ESP Fit Center   82 is at  -7.397252 -3.017387 -0.400229
      ESP Fit Center   83 is at  -7.397252 -3.017387 -0.100229
      ESP Fit Center   84 is at  -7.397252 -3.017387  0.199771
      ESP Fit Center   85 is at  -7.397252 -3.017387  0.499771
      ESP Fit Center   86 is at  -7.397252 -3.017387  0.799771
      ESP Fit Center   87 is at  -7.397252 -2.717387 -1.000229
      ESP Fit Center   88 is at  -7.397252 -2.717387 -0.700229
      ESP Fit Center   89 is at  -7.397252 -2.717387 -0.400229
      ESP Fit Center   90 is at  -7.397252 -2.717387 -0.100229
      ESP Fit Center   91 is at  -7.397252 -2.717387  0.199771
      ESP Fit Center   92 is at  -7.397252 -2.717387  0.499771
      ESP Fit Center   93 is at  -7.397252 -2.717387  0.799771
      ESP Fit Center   94 is at  -7.397252 -2.717387  1.099771
      ESP Fit Center   95 is at  -7.397252 -2.417387 -1.000229
      ESP Fit Center   96 is at  -7.397252 -2.417387 -0.700229
      ESP Fit Center   97 is at  -7.397252 -2.417387 -0.400229
      ESP Fit Center   98 is at  -7.397252 -2.417387 -0.100229
      ESP Fit Center   99 is at  -7.397252 -2.417387  0.199771
      ESP Fit Center  100 is at  -7.397252 -2.417387  0.499771
      ESP Fit Center  101 is at  -7.397252 -2.417387  0.799771
      ESP Fit Center  102 is at  -7.397252 -2.417387  1.099771
      ESP Fit Center  103 is at  -7.397252 -2.417387  1.399771
      ESP Fit Center  104 is at  -7.397252 -2.117387 -1.300229
      ESP Fit Center  105 is at  -7.397252 -2.117387 -1.000229
      ESP Fit Center  106 is at  -7.397252 -2.117387 -0.700229
      ESP Fit Center  107 is at  -7.397252 -2.117387 -0.400229
      ESP Fit Center  108 is at  -7.397252 -2.117387 -0.100229
      ESP Fit Center  109 is at  -7.397252 -2.117387  0.199771
      ESP Fit Center  110 is at  -7.397252 -2.117387  0.499771
      ESP Fit Center  111 is at  -7.397252 -2.117387  0.799771
      ESP Fit Center  112 is at  -7.397252 -2.117387  1.099771
      ESP Fit Center  113 is at  -7.397252 -2.117387  1.399771
      ESP Fit Center  114 is at  -7.397252 -1.817387 -1.300229
      ESP Fit Center  115 is at  -7.397252 -1.817387 -1.000229
      ESP Fit Center  116 is at  -7.397252 -1.817387 -0.700229
      ESP Fit Center  117 is at  -7.397252 -1.817387 -0.400229
      ESP Fit Center  118 is at  -7.397252 -1.817387 -0.100229
      ESP Fit Center  119 is at  -7.397252 -1.817387  0.199771
      ESP Fit Center  120 is at  -7.397252 -1.817387  0.499771
      ESP Fit Center  121 is at  -7.397252 -1.817387  0.799771
      ESP Fit Center  122 is at  -7.397252 -1.817387  1.099771
      ESP Fit Center  123 is at  -7.397252 -1.817387  1.399771
      ESP Fit Center  124 is at  -7.397252 -1.817387  1.699771
      ESP Fit Center  125 is at  -7.397252 -1.517387 -1.300229
      ESP Fit Center  126 is at  -7.397252 -1.517387 -1.000229
      ESP Fit Center  127 is at  -7.397252 -1.517387 -0.700229
      ESP Fit Center  128 is at  -7.397252 -1.517387 -0.400229
      ESP Fit Center  129 is at  -7.397252 -1.517387 -0.100229
      ESP Fit Center  130 is at  -7.397252 -1.517387  0.199771
      ESP Fit Center  131 is at  -7.397252 -1.517387  0.499771
      ESP Fit Center  132 is at  -7.397252 -1.517387  0.799771
      ESP Fit Center  133 is at  -7.397252 -1.517387  1.099771
      ESP Fit Center  134 is at  -7.397252 -1.517387  1.399771
      ESP Fit Center  135 is at  -7.397252 -1.517387  1.699771
      ESP Fit Center  136 is at  -7.397252 -1.217387 -1.300229
      ESP Fit Center  137 is at  -7.397252 -1.217387 -1.000229
      ESP Fit Center  138 is at  -7.397252 -1.217387 -0.700229
      ESP Fit Center  139 is at  -7.397252 -1.217387 -0.400229
      ESP Fit Center  140 is at  -7.397252 -1.217387 -0.100229
      ESP Fit Center  141 is at  -7.397252 -1.217387  0.199771
      ESP Fit Center  142 is at  -7.397252 -1.217387  0.499771
      ESP Fit Center  143 is at  -7.397252 -1.217387  0.799771
      ESP Fit Center  144 is at  -7.397252 -1.217387  1.099771
      ESP Fit Center  145 is at  -7.397252 -1.217387  1.399771
      ESP Fit Center  146 is at  -7.397252 -1.217387  1.699771
      ESP Fit Center  147 is at  -7.397252 -0.917387 -1.300229
      ESP Fit Center  148 is at  -7.397252 -0.917387 -1.000229
      ESP Fit Center  149 is at  -7.397252 -0.917387 -0.700229
      ESP Fit Center  150 is at  -7.397252 -0.917387 -0.400229
      ESP Fit Center  151 is at  -7.397252 -0.917387 -0.100229
      ESP Fit Center  152 is at  -7.397252 -0.917387  0.199771
      ESP Fit Center  153 is at  -7.397252 -0.917387  0.499771
      ESP Fit Center  154 is at  -7.397252 -0.917387  0.799771
      ESP Fit Center  155 is at  -7.397252 -0.917387  1.099771
      ESP Fit Center  156 is at  -7.397252 -0.917387  1.399771
      ESP Fit Center  157 is at  -7.397252 -0.617387 -1.000229
      ESP Fit Center  158 is at  -7.397252 -0.617387 -0.700229
      ESP Fit Center  159 is at  -7.397252 -0.617387 -0.400229
      ESP Fit Center  160 is at  -7.397252 -0.617387 -0.100229
      ESP Fit Center  161 is at  -7.397252 -0.617387  0.199771
      ESP Fit Center  162 is at  -7.397252 -0.617387  0.499771
      ESP Fit Center  163 is at  -7.397252 -0.617387  0.799771
      ESP Fit Center  164 is at  -7.397252 -0.617387  1.099771
      ESP Fit Center  165 is at  -7.397252 -0.617387  1.399771
      ESP Fit Center  166 is at  -7.397252 -0.317387 -1.000229
      ESP Fit Center  167 is at  -7.397252 -0.317387 -0.700229
      ESP Fit Center  168 is at  -7.397252 -0.317387 -0.400229
      ESP Fit Center  169 is at  -7.397252 -0.317387 -0.100229
      ESP Fit Center  170 is at  -7.397252 -0.317387  0.199771
      ESP Fit Center  171 is at  -7.397252 -0.317387  0.499771
      ESP Fit Center  172 is at  -7.397252 -0.317387  0.799771
[...]
 **** Fit      -0.229199
 **** Fit      -0.240237
 **** Fit      -0.249042
 **** Fit      -0.254243
 **** Fit      -0.255046
 **** Fit      -0.251567
 **** Fit      -0.244871
 **** Fit      -0.236691
 **** Fit      -0.228738
 **** Fit      -0.221952
 **** Fit      -0.216302
 **** Fit      -0.211181
 **** Fit      -0.205930
 **** Fit      -0.200159
 **** Fit      -0.194685
 **** Fit      -0.205466
 **** Fit      -0.216759
 **** Fit      -0.228012
 **** Fit      -0.238270
 **** Fit      -0.246249
 **** Fit      -0.250707
 **** Fit      -0.250973
 **** Fit      -0.247315
 **** Fit      -0.240944
 **** Fit      -0.233594
 **** Fit      -0.226780
 **** Fit      -0.221169
 **** Fit      -0.216515
 **** Fit      -0.212107
 **** Fit      -0.207281
 **** Fit      -0.201693
 **** Fit      -0.195336
 **** Fit      -0.204608
 **** Fit      -0.215443
 **** Fit      -0.226117
 **** Fit      -0.235751
 **** Fit      -0.243201
 **** Fit      -0.247371
 **** Fit      -0.247683
 **** Fit      -0.244426
 **** Fit      -0.238756
 **** Fit      -0.232254
 **** Fit      -0.226241
 **** Fit      -0.221246
 **** Fit      -0.216988
 **** Fit      -0.212788
 **** Fit      -0.208036
 **** Fit      -0.202438
 **** Fit      -0.196022
 **** Fit      -0.203355
 **** Fit      -0.213936
 **** Fit      -0.224403
 **** Fit      -0.233978
 **** Fit      -0.241641
 **** Fit      -0.246366
 **** Fit      -0.247524
 **** Fit      -0.245232
 **** Fit      -0.240391
 **** Fit      -0.234349
 **** Fit      -0.228336
 **** Fit      -0.222976
 **** Fit      -0.218189
 **** Fit      -0.213473
 **** Fit      -0.208313
 **** Fit      -0.202436
 **** Fit      -0.195852
 **** Fit      -0.212456
 **** Fit      -0.223151
 **** Fit      -0.233289
 **** Fit      -0.241921
 **** Fit      -0.247972
 **** Fit      -0.250607
 **** Fit      -0.249622
 **** Fit      -0.245561
 **** Fit      -0.239517
 **** Fit      -0.232730
 **** Fit      -0.226112
 **** Fit      -0.219971
 **** Fit      -0.214098
 **** Fit      -0.208102
 **** Fit      -0.201708
 **** Fit      -0.200049
 **** Fit      -0.210802
 **** Fit      -0.221952
 **** Fit      -0.232946
 **** Fit      -0.242857
 **** Fit      -0.250481
 **** Fit      -0.254724
 **** Fit      -0.255055
 **** Fit      -0.251685
 **** Fit      -0.245456
 **** Fit      -0.237617
 **** Fit      -0.229408
 **** Fit      -0.221581
 **** Fit      -0.214271
 **** Fit      -0.207244
 **** Fit      -0.197686
 **** Fit      -0.208529
 **** Fit      -0.220018
 **** Fit      -0.231672
 **** Fit      -0.242564
 **** Fit      -0.251384
 **** Fit      -0.249259
 **** Fit      -0.240683
 **** Fit      -0.231223
 **** Fit      -0.221990
 **** Fit      -0.213435
 **** Fit      -0.205492
 **** Fit      -0.194535
 **** Fit      -0.205213
 **** Fit      -0.216648
 **** Fit      -0.228400
 **** Fit      -0.239567
 **** Fit      -0.248840
 **** Fit      -0.248900
 **** Fit      -0.240227
 **** Fit      -0.230287
 **** Fit      -0.220361
 **** Fit      -0.211110
 **** Fit      -0.202627
 **** Fit      -0.190480
 **** Fit      -0.200660
 **** Fit      -0.211554
 **** Fit      -0.222749
 **** Fit      -0.233422
 **** Fit      -0.242390
 **** Fit      -0.248452
 **** Fit      -0.250809
 **** Fit      -0.249191
 **** Fit      -0.243870
 **** Fit      -0.235745
 **** Fit      -0.226162
 **** Fit      -0.216368
 **** Fit      -0.207097
 **** Fit      -0.198560
 **** Fit      -0.185567
 **** Fit      -0.194955
 **** Fit      -0.204905
 **** Fit      -0.215035
 **** Fit      -0.224640
 **** Fit      -0.232739
 **** Fit      -0.238325
 **** Fit      -0.240671
 **** Fit      -0.239481
 **** Fit      -0.234954
 **** Fit      -0.227832
 **** Fit      -0.219236
 **** Fit      -0.210236
 **** Fit      -0.201526
 **** Fit      -0.193383
 **** Fit      -0.188381
 **** Fit      -0.197161
 **** Fit      -0.205965
 **** Fit      -0.214216
 **** Fit      -0.221152
 **** Fit      -0.225983
 **** Fit      -0.228108
 **** Fit      -0.227260
 **** Fit      -0.223591
 **** Fit      -0.217680
 **** Fit      -0.210386
 **** Fit      -0.202551
 **** Fit      -0.194767
 **** Fit      -0.181296
 **** Fit      -0.188853
 **** Fit      -0.196292
 **** Fit      -0.203160
 **** Fit      -0.208884
 **** Fit      -0.212879
 **** Fit      -0.214690
 **** Fit      -0.214109
 **** Fit      -0.211247
 **** Fit      -0.206528
 **** Fit      -0.200570
 **** Fit      -0.193996
 **** Fit      -0.187282
 **** Fit      -0.180430
 **** Fit      -0.186614
 **** Fit      -0.192229
 **** Fit      -0.196856
 **** Fit      -0.200079
 **** Fit      -0.201572
 **** Fit      -0.201189
 **** Fit      -0.199009
 **** Fit      -0.195323
 **** Fit      -0.190559
 **** Fit      -0.185162
 **** Fit      -0.181871
 **** Fit      -0.185584
 **** Fit      -0.188160
 **** Fit      -0.189377
 **** Fit      -0.189135
 **** Fit      -0.187487
 **** Fit      -0.184629
 **** Fit      -0.180851
 **** Fit      -0.177337
 **** Fit      -0.178328
 **** Fit      -0.178182
 **** Fit      -0.180238
 **** Fit      -0.181558
 **** Fit      -0.182641
 **** Fit      -0.186536
 **** Fit      -0.189333
 **** Fit      -0.190828
 **** Fit      -0.190937
 **** Fit      -0.189728
 **** Fit      -0.187403
 **** Fit      -0.185390
 **** Fit      -0.190926
 **** Fit      -0.195516
 **** Fit      -0.198792
 **** Fit      -0.200470
 **** Fit      -0.200437
 **** Fit      -0.198792
 **** Fit      -0.195832
 **** Fit      -0.191956
 **** Fit      -0.185694
 **** Fit      -0.192704
 **** Fit      -0.199119
 **** Fit      -0.204462
 **** Fit      -0.208245
 **** Fit      -0.210092
 **** Fit      -0.209854
 **** Fit      -0.207680
 **** Fit      -0.203984
 **** Fit      -0.199316
 **** Fit      -0.194180
 **** Fit      -0.183565
 **** Fit      -0.191594
 **** Fit      -0.199487
 **** Fit      -0.206770
 **** Fit      -0.212848
 **** Fit      -0.217104
 **** Fit      -0.219064
 **** Fit      -0.218552
 **** Fit      -0.215782
 **** Fit      -0.211314
 **** Fit      -0.205866
 **** Fit      -0.200063
 **** Fit      -0.194291
 **** Fit      -0.187907
 **** Fit      -0.196638
 **** Fit      -0.205288
 **** Fit      -0.213311
 **** Fit      -0.219994
 **** Fit      -0.224599
 **** Fit      -0.226567
 **** Fit      -0.225716
 **** Fit      -0.222349
 **** Fit      -0.217184
 **** Fit      -0.211099
 **** Fit      -0.204819
 **** Fit      -0.198735
 **** Fit      -0.191283
 **** Fit      -0.200505
 **** Fit      -0.209673
 **** Fit      -0.218177
 **** Fit      -0.225214
 **** Fit      -0.229953
 **** Fit      -0.231787
 **** Fit      -0.230565
 **** Fit      -0.226698
 **** Fit      -0.221050
 **** Fit      -0.214620
 **** Fit      -0.208173
 **** Fit      -0.202065
 **** Fit      -0.193560
 **** Fit      -0.203006
 **** Fit      -0.212372
 **** Fit      -0.221011
 **** Fit      -0.228076
 **** Fit      -0.232695
 **** Fit      -0.234268
 **** Fit      -0.232712
 **** Fit      -0.228550
 **** Fit      -0.222751
 **** Fit      -0.216357
 **** Fit      -0.210107
 **** Fit      -0.204269
 **** Fit      -0.194752
 **** Fit      -0.204166
 **** Fit      -0.213427
 **** Fit      -0.221880
 **** Fit      -0.228682
 **** Fit      -0.232993
 **** Fit      -0.234270
 **** Fit      -0.232516
 **** Fit      -0.228336
 **** Fit      -0.222735
 **** Fit      -0.216721
 **** Fit      -0.210941
 **** Fit      -0.205563
 **** Fit      -0.195017
 **** Fit      -0.204238
 **** Fit      -0.213221
 **** Fit      -0.221329
 **** Fit      -0.227767
 **** Fit      -0.231770
 **** Fit      -0.232875
 **** Fit      -0.231149
 **** Fit      -0.227219
 **** Fit      -0.222048
 **** Fit      -0.216556
 **** Fit      -0.211288
 **** Fit      -0.206340
 **** Fit      -0.203598
 **** Fit      -0.212323
 **** Fit      -0.220170
 **** Fit      -0.226410
 **** Fit      -0.230351
 **** Fit      -0.231579
 **** Fit      -0.230157
 **** Fit      -0.226649
 **** Fit      -0.221925
 **** Fit      -0.216814
 **** Fit      -0.211814
 **** Fit      -0.211212
 **** Fit      -0.219069
 **** Fit      -0.225474
 **** Fit      -0.229763
 **** Fit      -0.231493
 **** Fit      -0.230626
 **** Fit      -0.227592
 **** Fit      -0.223143
 **** Fit      -0.218064
 **** Fit      -0.212897
 **** Fit      -0.207824
 **** Fit      -0.201288
 **** Fit      -0.210044
 **** Fit      -0.218202
 **** Fit      -0.225128
 **** Fit      -0.230132
 **** Fit      -0.232661
 **** Fit      -0.232505
 **** Fit      -0.229914
 **** Fit      -0.225522
 **** Fit      -0.220127
 **** Fit      -0.214390
 **** Fit      -0.208662
 **** Fit      -0.202983
 **** Fit      -0.199647
 **** Fit      -0.208612
 **** Fit      -0.217199
 **** Fit      -0.224785
 **** Fit      -0.230626
 **** Fit      -0.234029
 **** Fit      -0.234597
 **** Fit      -0.232396
 **** Fit      -0.227959
 **** Fit      -0.222104
 **** Fit      -0.215638
 **** Fit      -0.209099
 **** Fit      -0.202690
 **** Fit      -0.197405
 **** Fit      -0.206498
 **** Fit      -0.215395
 **** Fit      -0.223484
 **** Fit      -0.229974
 **** Fit      -0.234070
 **** Fit      -0.235236
 **** Fit      -0.233395
 **** Fit      -0.228980
 **** Fit      -0.222804
 **** Fit      -0.215767
 **** Fit      -0.208561
 **** Fit      -0.201532
 **** Fit      -0.194329
 **** Fit      -0.203317
 **** Fit      -0.212211
 **** Fit      -0.220419
 **** Fit      -0.227155
 **** Fit      -0.231598
 **** Fit      -0.233155
 **** Fit      -0.231661
 **** Fit      -0.227454
 **** Fit      -0.221288
 **** Fit      -0.214072
 **** Fit      -0.206569
 **** Fit      -0.199222
 **** Fit      -0.190307
 **** Fit      -0.198899
 **** Fit      -0.207413
 **** Fit      -0.215301
 **** Fit      -0.221835
 **** Fit      -0.226251
 **** Fit      -0.227978
 **** Fit      -0.226813
 **** Fit      -0.223012
 **** Fit      -0.217222
 **** Fit      -0.210279
 **** Fit      -0.202926
 **** Fit      -0.195642
 **** Fit      -0.185394
 **** Fit      -0.193337
 **** Fit      -0.201159
 **** Fit      -0.208376
 **** Fit      -0.214358
 **** Fit      -0.218455
 **** Fit      -0.220166
 **** Fit      -0.219297
 **** Fit      -0.216030
 **** Fit      -0.210890
 **** Fit      -0.204579
 **** Fit      -0.197753
 **** Fit      -0.190875
 **** Fit      -0.186909
 **** Fit      -0.193857
 **** Fit      -0.200207
 **** Fit      -0.205448
 **** Fit      -0.209058
 **** Fit      -0.210634
 **** Fit      -0.210011
 **** Fit      -0.207318
 **** Fit      -0.202955
 **** Fit      -0.197470
 **** Fit      -0.191403
 **** Fit      -0.185985
 **** Fit      -0.191423
 **** Fit      -0.195876
 **** Fit      -0.198949
 **** Fit      -0.200335
 **** Fit      -0.199905
 **** Fit      -0.197750
 **** Fit      -0.194159
 **** Fit      -0.189541
 **** Fit      -0.184314
 **** Fit      -0.182537
 **** Fit      -0.186254
 **** Fit      -0.188817
 **** Fit      -0.190004
 **** Fit      -0.189718
 **** Fit      -0.188023
 **** Fit      -0.185121
 **** Fit      -0.179097
 **** Fit      -0.180100
 **** Fit      -0.179918
 **** Fit      -0.180358
 **** Fit      -0.184029
 **** Fit      -0.186645
 **** Fit      -0.188025
 **** Fit      -0.188102
 **** Fit      -0.186947
 **** Fit      -0.181862
 **** Fit      -0.186929
 **** Fit      -0.191090
 **** Fit      -0.194030
 **** Fit      -0.195517
 **** Fit      -0.195471
 **** Fit      -0.193992
 **** Fit      -0.191340
 **** Fit      -0.187854
 **** Fit      -0.187348
 **** Fit      -0.192978
 **** Fit      -0.197604
 **** Fit      -0.200838
 **** Fit      -0.202399
 **** Fit      -0.202195
 **** Fit      -0.200367
 **** Fit      -0.197256
 **** Fit      -0.193287
 **** Fit      -0.185299
 **** Fit      -0.192044
 **** Fit      -0.198147
 **** Fit      -0.203152
 **** Fit      -0.206608
 **** Fit      -0.208188
 **** Fit      -0.207801
 **** Fit      -0.205639
 **** Fit      -0.202124
 **** Fit      -0.197766
 **** Fit      -0.193005
 **** Fit      -0.188587
 **** Fit      -0.195687
 **** Fit      -0.202110
 **** Fit      -0.207351
 **** Fit      -0.210914
 **** Fit      -0.212449
 **** Fit      -0.211879
 **** Fit      -0.209452
 **** Fit      -0.205660
 **** Fit      -0.201075
 **** Fit      -0.196164
 **** Fit      -0.190860
 **** Fit      -0.198132
 **** Fit      -0.204686
 **** Fit      -0.209992
 **** Fit      -0.213538
 **** Fit      -0.214978
 **** Fit      -0.214264
 **** Fit      -0.211692
 **** Fit      -0.207802
 **** Fit      -0.203191
 **** Fit      -0.198319
 **** Fit      -0.192133
 **** Fit      -0.199411
 **** Fit      -0.205930
 **** Fit      -0.211162
 **** Fit      -0.214609
 **** Fit      -0.215952
 **** Fit      -0.215177
 **** Fit      -0.212611
 **** Fit      -0.208804
 **** Fit      -0.204341
 **** Fit      -0.199651
 **** Fit      -0.199736
 **** Fit      -0.206140
 **** Fit      -0.211255
 **** Fit      -0.214615
 **** Fit      -0.215933
 **** Fit      -0.215219
 **** Fit      -0.212797
 **** Fit      -0.209194
 **** Fit      -0.204956
 **** Fit      -0.199408
 **** Fit      -0.205732
 **** Fit      -0.210810
 **** Fit      -0.214204
 **** Fit      -0.215642
 **** Fit      -0.215124
 **** Fit      -0.212936
 **** Fit      -0.209560
 **** Fit      -0.205500
 **** Fit      -0.205041
 **** Fit      -0.210243
 **** Fit      -0.213857
 **** Fit      -0.215589
 **** Fit      -0.215387
 **** Fit      -0.213468
 **** Fit      -0.210256
 **** Fit      -0.206235
 **** Fit      -0.201797
 **** Fit      -0.204158
 **** Fit      -0.209638
 **** Fit      -0.213630
 **** Fit      -0.215789
 **** Fit      -0.215975
 **** Fit      -0.214318
 **** Fit      -0.211185
 **** Fit      -0.207057
 **** Fit      -0.202376
 **** Fit      -0.196181
 **** Fit      -0.202905
 **** Fit      -0.208712
 **** Fit      -0.213131
 **** Fit      -0.215747
 **** Fit      -0.216327
 **** Fit      -0.214911
 **** Fit      -0.211813
 **** Fit      -0.207519
 **** Fit      -0.202528
 **** Fit      -0.197210
 **** Fit      -0.194099
 **** Fit      -0.200950
 **** Fit      -0.206995
 **** Fit      -0.211742
 **** Fit      -0.214726
 **** Fit      -0.215639
 **** Fit      -0.214447
 **** Fit      -0.211413
 **** Fit      -0.207017
 **** Fit      -0.201795
 **** Fit      -0.196183
 **** Fit      -0.191191
 **** Fit      -0.197993
 **** Fit      -0.204073
 **** Fit      -0.208941
 **** Fit      -0.212116
 **** Fit      -0.213256
 **** Fit      -0.212278
 **** Fit      -0.209396
 **** Fit      -0.205057
 **** Fit      -0.199797
 **** Fit      -0.194083
 **** Fit      -0.187366
 **** Fit      -0.193905
 **** Fit      -0.199778
 **** Fit      -0.204526
 **** Fit      -0.207692
 **** Fit      -0.208941
 **** Fit      -0.208166
 **** Fit      -0.205535
 **** Fit      -0.201440
 **** Fit      -0.196377
 **** Fit      -0.190800
 **** Fit      -0.188768
 **** Fit      -0.194228
 **** Fit      -0.198653
 **** Fit      -0.201642
 **** Fit      -0.202895
 **** Fit      -0.202306
 **** Fit      -0.199999
 **** Fit      -0.196298
 **** Fit      -0.191629
 **** Fit      -0.186403
 **** Fit      -0.182820
 **** Fit      -0.187736
 **** Fit      -0.191712
 **** Fit      -0.194417
 **** Fit      -0.195601
 **** Fit      -0.195170
 **** Fit      -0.193215
 **** Fit      -0.189988
 **** Fit      -0.185836
 **** Fit      -0.180681
 **** Fit      -0.184161
 **** Fit      -0.186536
 **** Fit      -0.187611
 **** Fit      -0.187309
 **** Fit      -0.185693
 **** Fit      -0.182954
 **** Fit      -0.178453
 **** Fit      -0.179404
 **** Fit      -0.179200
 **** Fit      -0.181779
 **** Fit      -0.183014
 **** Fit      -0.184622
 **** Fit      -0.187154
 **** Fit      -0.188445
 **** Fit      -0.188444
 **** Fit      -0.187240
 **** Fit      -0.185202
 **** Fit      -0.189056
 **** Fit      -0.191735
 **** Fit      -0.193052
 **** Fit      -0.192959
 **** Fit      -0.191570
 **** Fit      -0.189129
 **** Fit      -0.188503
 **** Fit      -0.192523
 **** Fit      -0.195289
 **** Fit      -0.196603
 **** Fit      -0.196425
 **** Fit      -0.194895
 **** Fit      -0.192292
 **** Fit      -0.190817
 **** Fit      -0.194916
 **** Fit      -0.197711
 **** Fit      -0.199004
 **** Fit      -0.198768
 **** Fit      -0.197165
 **** Fit      -0.194496
 **** Fit      -0.192179
 **** Fit      -0.196289
 **** Fit      -0.199078
 **** Fit      -0.200356
 **** Fit      -0.200110
 **** Fit      -0.198514
 **** Fit      -0.195873
 **** Fit      -0.196842
 **** Fit      -0.199634
 **** Fit      -0.200938
 **** Fit      -0.200747
 **** Fit      -0.199231
 **** Fit      -0.199689
 **** Fit      -0.201090
 **** Fit      -0.201022
 **** Fit      -0.201043
 **** Fit      -0.201158
 **** Fit      -0.199928
 **** Fit      -0.198994
 **** Fit      -0.200801
 **** Fit      -0.201133
 **** Fit      -0.200063
 **** Fit      -0.197805
 **** Fit      -0.194674
 **** Fit      -0.198085
 **** Fit      -0.200132
 **** Fit      -0.200683
 **** Fit      -0.199766
 **** Fit      -0.197565
 **** Fit      -0.194370
 **** Fit      -0.192873
 **** Fit      -0.196445
 **** Fit      -0.198685
 **** Fit      -0.199424
 **** Fit      -0.198651
 **** Fit      -0.196522
 **** Fit      -0.193320
 **** Fit      -0.190192
 **** Fit      -0.193816
 **** Fit      -0.196158
 **** Fit      -0.197031
 **** Fit      -0.196394
 **** Fit      -0.194378
 **** Fit      -0.191245
 **** Fit      -0.186546
 **** Fit      -0.190091
 **** Fit      -0.192430
 **** Fit      -0.193371
 **** Fit      -0.192863
 **** Fit      -0.191008
 **** Fit      -0.188039
 **** Fit      -0.185348
 **** Fit      -0.187586
 **** Fit      -0.188538
 **** Fit      -0.188146
 **** Fit      -0.186490
 **** Fit      -0.181871
 **** Fit      -0.182788
 **** Fit      -0.182497
 -----------------------------------------------------------------
 Leave Link  602 at Fri Feb 21 10:32:35 2020, MaxMem=   134217728 cpu:        21.1

 Test job not archived.
 1\1\GINC-NODE008\SP\RB3LYP\CC-pVTZ\C7H13N1O11S2(2-)\WISE\21-Feb-2020\0
 \\#b3lyp/cc-pVTZ pop=chelpg iop(6/33=2) scf=tight\\Title Card Required
 \\-2,1\C,0,-0.3449886864,-0.0336085306,0.0487207685\H,0,-1.0745552945,
 0.3783522162,0.7385073869\H,0,0.5239678263,-0.3437953578,0.618818864\H
 ,0,-0.0515576705,0.7302779745,-0.6553008762\O,0,-0.9276924206,-1.14620
 28955,-0.5749725515\C,0,-0.8520784662,-1.3278232344,-1.9624094996\H,0,
 -1.7662893921,-0.9511046236,-2.4039609835\C,0,-0.7370926237,-2.8369319
 271,-2.2786751429\H,0,-0.9075475691,-2.9356584909,-3.3473799737\N,0,-1
 .8456862505,-3.4873247514,-1.5805111859\H,0,-2.1566677727,-2.900446927
 4,-0.8340954338\S,0,-1.843808779,-5.0326248355,-0.8704216707\O,0,-0.65
 77498725,-5.1333528101,-0.0386304461\O,0,-1.8860540747,-5.9779031612,-
 1.962809809\O,0,-3.0701448946,-4.9506359622,-0.0957363827\C,0,0.696648
 146,-3.3379444867,-2.0446201453\H,0,0.928125775,-3.3700287638,-0.98794
 93131\O,0,0.8491446055,-4.6099079816,-2.6118717995\H,0,1.7373122447,-4
 .6784401903,-2.9286494066\C,0,1.6526228547,-2.3839047295,-2.7652200376
 \H,0,1.4124695459,-2.4177162288,-3.8260603815\O,0,2.9842316576,-2.8393
 497586,-2.5739238129\H,0,3.4034305688,-2.953014485,-3.4126403455\C,0,1
 .4871093029,-0.9509945564,-2.2964059051\H,0,1.7063127905,-0.8955888927
 ,-1.2362806826\O,0,0.152957861,-0.5818203946,-2.5547990937\C,0,2.39544
 76742,0.0177528883,-3.0311958305\H,0,3.4222426322,-0.3146773777,-2.949
 241373\H,0,2.1099477995,0.0418723612,-4.0753385368\O,0,2.2718118787,1.
 2948771786,-2.4636740118\S,0,2.5131347514,2.5719624865,-3.4496552546\O
 ,0,2.3589326035,3.6765100997,-2.5403142427\O,0,1.4940104093,2.46533522
 74,-4.4666819419\O,0,3.8559332072,2.3764323803,-3.9557683283\\Version=
 ES64L-G09RevD.01\State=1-A\HF=-1953.646291\RMSD=7.437e-09\Dipole=1.414
 832,-0.1951688,-0.3745742\Quadrupole=19.3285022,-64.6604362,45.3319339
 ,-68.4958672,18.9755289,41.3940768\PG=C01 [X(C7H13N1O11S2)]\\@


 SIC AS THE CAWSE OF EWERY THING IS, SIC WILBE THE EFFECT.
 -- PROVERBS AND REASONS OF THE YEAR 1585
           AS REPRINTED IN PAISLEY MAGAZINE 1828.
 Job cpu time:       0 days  1 hours 20 minutes 39.2 seconds.
 File lengths (MBytes):  RWF=    362 Int=      0 D2E=      0 Chk=     25 Scr=      1
 Normal termination of Gaussian 09 at Fri Feb 21 10:32:36 2020.
