 Entering Gaussian System, Link 0=/programs/gaussian/16/g16/g16
 Input=./temp_table1_2_ligand_esp.com
 Output=./temp_table1_2_ligand_esp_g16.log
 Initial command:
 /programs/gaussian/16/g16/l1.exe "/local/yao/temp_table1_2/Gau-21824.inp" -scrdir="/local/yao/temp_table1_2/"
 Entering Link 1 = /programs/gaussian/16/g16/l1.exe PID=     21827.
  
 Copyright (c) 1988-2019, Gaussian, Inc.  All Rights Reserved.
  
 This is part of the Gaussian(R) 16 program.  It is based on
 the Gaussian(R) 09 system (copyright 2009, Gaussian, Inc.),
 the Gaussian(R) 03 system (copyright 2003, Gaussian, Inc.),
 the Gaussian(R) 98 system (copyright 1998, Gaussian, Inc.),
 the Gaussian(R) 94 system (copyright 1995, Gaussian, Inc.),
 the Gaussian 92(TM) system (copyright 1992, Gaussian, Inc.),
 the Gaussian 90(TM) system (copyright 1990, Gaussian, Inc.),
 the Gaussian 88(TM) system (copyright 1988, Gaussian, Inc.),
 the Gaussian 86(TM) system (copyright 1986, Carnegie Mellon
 University), and the Gaussian 82(TM) system (copyright 1983,
 Carnegie Mellon University). Gaussian is a federally registered
 trademark of Gaussian, Inc.
  
 This software contains proprietary and confidential information,
 including trade secrets, belonging to Gaussian, Inc.
  
 This software is provided under written license and may be
 used, copied, transmitted, or stored only in accord with that
 written license.
  
 The following legend is applicable only to US Government
 contracts under FAR:
  
                    RESTRICTED RIGHTS LEGEND
  
 Use, reproduction and disclosure by the US Government is
 subject to restrictions as set forth in subparagraphs (a)
 and (c) of the Commercial Computer Software - Restricted
 Rights clause in FAR 52.227-19.
  
 Gaussian, Inc.
 340 Quinnipiac St., Bldg. 40, Wallingford CT 06492
  
  
 ---------------------------------------------------------------
 Warning -- This program may not be used in any manner that
 competes with the business of Gaussian, Inc. or will provide
 assistance to any competitor of Gaussian, Inc.  The licensee
 of this program is prohibited from giving any competitor of
 Gaussian, Inc. access to this program.  By using this program,
 the user acknowledges that Gaussian, Inc. is engaged in the
 business of creating and licensing software in the field of
 computational chemistry and represents and warrants to the
 licensee that it is not a competitor of Gaussian, Inc. and that
 it will not use this program in any manner prohibited above.
 ---------------------------------------------------------------
  

 Cite this work as:
 Gaussian 16, Revision C.01,
 M. J. Frisch, G. W. Trucks, H. B. Schlegel, G. E. Scuseria, 
 M. A. Robb, J. R. Cheeseman, G. Scalmani, V. Barone, 
 G. A. Petersson, H. Nakatsuji, X. Li, M. Caricato, A. V. Marenich, 
 J. Bloino, B. G. Janesko, R. Gomperts, B. Mennucci, H. P. Hratchian, 
 J. V. Ortiz, A. F. Izmaylov, J. L. Sonnenberg, D. Williams-Young, 
 F. Ding, F. Lipparini, F. Egidi, J. Goings, B. Peng, A. Petrone, 
 T. Henderson, D. Ranasinghe, V. G. Zakrzewski, J. Gao, N. Rega, 
 G. Zheng, W. Liang, M. Hada, M. Ehara, K. Toyota, R. Fukuda, 
 J. Hasegawa, M. Ishida, T. Nakajima, Y. Honda, O. Kitao, H. Nakai, 
 T. Vreven, K. Throssell, J. A. Montgomery, Jr., J. E. Peralta, 
 F. Ogliaro, M. J. Bearpark, J. J. Heyd, E. N. Brothers, K. N. Kudin, 
 V. N. Staroverov, T. A. Keith, R. Kobayashi, J. Normand, 
 K. Raghavachari, A. P. Rendell, J. C. Burant, S. S. Iyengar, 
 J. Tomasi, M. Cossi, J. M. Millam, M. Klene, C. Adamo, R. Cammi, 
 J. W. Ochterski, R. L. Martin, K. Morokuma, O. Farkas, 
 J. B. Foresman, and D. J. Fox, Gaussian, Inc., Wallingford CT, 2019.
 
 ******************************************
 Gaussian 16:  ES64L-G16RevC.01  3-Jul-2019
                16-Sep-2022 
 ******************************************
 %Chk=temp_table1_2_esp.chk
 %mem=1024MB
 %NProcShared=8
 Will use up to    8 processors via shared memory.
 ----------------------------------------------------------------
 #HF/6-31+G* pop=chelpg iop(6/33=2) geom=(connectivity) scf=tight
 ----------------------------------------------------------------
 1/38=1,57=2,172=1/1;
 2/12=2,17=6,18=5,40=1/2;
 3/5=1,6=6,7=11,11=9,25=1,30=1/1,2,3;
 4//1;
 5/5=2,32=2,38=5/2;
 6/7=2,8=2,9=2,10=2,15=8,20=3,28=1,33=2/1,2;
 99/5=1,9=1/99;
 -------------------------------------------------
 ESP calculation of the optimized ligand structure
 -------------------------------------------------
 Symbolic Z-matrix:
 Charge = -1 Multiplicity = 1
 C(PDBName=C1,ResName=SIA,ResNum=10140_C) -54.88255   11.58992   20.86722 
 O(PDBName=O2,ResName=SIA,ResNum=10140_C) -55.69039   11.9933   19.78503 
 C(PDBName=C3,ResName=SIA,ResNum=10140_C) -54.07076   13.61346   18.99761 
 C(PDBName=C4,ResName=SIA,ResNum=10140_C) -55.06149   12.45198   18.63725 
 C(PDBName=C5,ResName=SIA,ResNum=10140_C) -56.16926   12.89458   17.69046 
 C(PDBName=C6,ResName=SIA,ResNum=10140_C) -55.64012   13.11018   16.28429 
 C(PDBName=C7,ResName=SIA,ResNum=10140_C) -54.92636   11.85136   15.77981 
 C(PDBName=C8,ResName=SIA,ResNum=10140_C) -53.83275   11.45008   16.78827 
 C(PDBName=C9,ResName=SIA,ResNum=10140_C) -53.10163   10.11748   16.54949 
 C(PDBName=C10,ResName=SIA,ResNum=10140_C) -54.00907   8.87806   16.45647 
 C(PDBName=C11,ResName=SIA,ResNum=10140_C) -53.25588   7.59454   16.11568 
 C(PDBName=C12,ResName=SIA,ResNum=10140_C) -54.63193   11.33026   13.37828 
 C(PDBName=C13,ResName=SIA,ResNum=10140_C) -53.80636   11.63126   12.1504 
 N(PDBName=N14,ResName=SIA,ResNum=10140_C) -54.38649   12.09905   14.45556 
 O(PDBName=O15,ResName=SIA,ResNum=10140_C) -52.86099   13.3892   18.91078 
 O(PDBName=O16,ResName=SIA,ResNum=10140_C) -54.61806   14.66046   19.36427 
 O(PDBName=O17,ResName=SIA,ResNum=10140_C) -56.7343   13.43361   15.46307 
 O(PDBName=O18,ResName=SIA,ResNum=10140_C) -54.40276   11.33876   18.07706 
 O(PDBName=O19,ResName=SIA,ResNum=10140_C) -52.33546   10.25578   15.38139 
 O(PDBName=O20,ResName=SIA,ResNum=10140_C) -54.68975   8.63688   17.66677 
 O(PDBName=O21,ResName=SIA,ResNum=10140_C) -55.46332   10.44491   13.37161 
 H(PDBName=H22,ResName=SIA,ResNum=10140_C) -55.5548   11.19584   21.61554 
 H(PDBName=H23,ResName=SIA,ResNum=10140_C) -54.33991   12.42909   21.28692 
 H(PDBName=H24,ResName=SIA,ResNum=10140_C) -54.18308   10.81927   20.57138 
 H(PDBName=H25,ResName=SIA,ResNum=10140_C) -56.63216   13.79765   18.05995 
 H(PDBName=H26,ResName=SIA,ResNum=10140_C) -56.91711   12.1082   17.66979 
 H(PDBName=H27,ResName=SIA,ResNum=10140_C) -54.93584   13.9402   16.2784 
 H(PDBName=H28,ResName=SIA,ResNum=10140_C) -55.66207   11.06734   15.68636 
 H(PDBName=H29,ResName=SIA,ResNum=10140_C) -53.06838   12.21594   16.80025 
 H(PDBName=H30,ResName=SIA,ResNum=10140_C) -52.44831   9.99503   17.40791 
 H(PDBName=H31,ResName=SIA,ResNum=10140_C) -54.72463   9.02766   15.65434 
 H(PDBName=H32,ResName=SIA,ResNum=10140_C) -52.7961   7.67223   15.14273 
 H(PDBName=H33,ResName=SIA,ResNum=10140_C) -53.97975   6.79161   16.07405 
 H(PDBName=H34,ResName=SIA,ResNum=10140_C) -53.02808   10.87933   12.07314 
 H(PDBName=H35,ResName=SIA,ResNum=10140_C) -53.3419   12.60817   12.18036 
 H(PDBName=H36,ResName=SIA,ResNum=10140_C) -54.43626   11.5569   11.27398 
 H(PDBName=H37,ResName=SIA,ResNum=10140_C) -53.60739   12.7183   14.39592 
 H(PDBName=H38,ResName=SIA,ResNum=10140_C) -56.42634   13.60451   14.58119 
 H(PDBName=H39,ResName=SIA,ResNum=10140_C) -51.61038   9.63661   15.41833 
 H(PDBName=H40,ResName=SIA,ResNum=10140_C) -54.91846   9.46521   18.07506 
 N(PDBName=N41,ResName=BDU,ResNum=10201_A) -52.2447   7.21262   17.08805 
 C(PDBName=C42,ResName=BDU,ResNum=10201_A) -50.94676   7.50124   16.96726 
 O(PDBName=O43,ResName=BDU,ResNum=10201_A) -50.51008   8.15612   16.03198 
 C(PDBName=C44,ResName=BDU,ResNum=10201_A) -50.02266   6.98395   18.02794 
 C(PDBName=C45,ResName=BDU,ResNum=10201_A) -50.42202   6.78037   19.34463 
 C(PDBName=C46,ResName=BDU,ResNum=10201_A) -49.51969   6.31641   20.28863 
 C(PDBName=C47,ResName=BDU,ResNum=10201_A) -48.70166   6.72258   17.67833 
 C(PDBName=C48,ResName=BDU,ResNum=10201_A) -47.80597   6.24473   18.61873 
 C(PDBName=C49,ResName=BDU,ResNum=10201_A) -48.19974   6.03471   19.94097 
 C(PDBName=C50,ResName=BDU,ResNum=10201_A) -47.23173   5.52748   20.95618 
 C(PDBName=C51,ResName=BDU,ResNum=10201_A) -47.17668   6.0876    22.23244 
 C(PDBName=C52,ResName=BDU,ResNum=10201_A) -46.36066   4.48212   20.6495 
 C(PDBName=C53,ResName=BDU,ResNum=10201_A) -46.27484   5.61621   23.17583 
 C(PDBName=C54,ResName=BDU,ResNum=10201_A) -45.46052   4.00835   21.59331 
 C(PDBName=C55,ResName=BDU,ResNum=10201_A) -45.41366   4.57415   22.86014 
 H(PDBName=H56,ResName=BDU,ResNum=10201_A) -52.53813   6.63222   17.84014 
 H(PDBName=H57,ResName=BDU,ResNum=10201_A) -51.42655   6.99762   19.65878 
 H(PDBName=H58,ResName=BDU,ResNum=10201_A) -49.85463   6.16207   21.29787 
 H(PDBName=H59,ResName=BDU,ResNum=10201_A) -48.37711   6.89506   16.6698 
 H(PDBName=H60,ResName=BDU,ResNum=10201_A) -46.78981   6.05472   18.32517 
 H(PDBName=H61,ResName=BDU,ResNum=10201_A) -47.82622   6.90569   22.487 
 H(PDBName=H62,ResName=BDU,ResNum=10201_A) -46.39539   4.02381   19.67749 
 H(PDBName=H63,ResName=BDU,ResNum=10201_A) -46.2424   6.06636   24.15194 
 H(PDBName=H64,ResName=BDU,ResNum=10201_A) -44.80232   3.19646   21.3401 
 H(PDBName=H65,ResName=BDU,ResNum=10201_A) -44.71541   4.20816   23.5914 
 
 Center=    -52.03753846      9.28746154     17.89092308
 Residue   1 PDB Number 10140_C SIA charge    0.00000000 layers R        AvRTP=      3.43165890    139.12878074    112.81253975
 Residue   2 PDB Number 10201_A BDU charge    0.00000000 layers R        AvRTP=      5.49065425    319.12878074     67.18746025
 Stoichiometry    C25H29N2O9(1-)
 Framework group  C1[X(C25H29N2O9)]
 Deg. of freedom   189
 Full point group                 C1      NOp   1
 Largest Abelian subgroup         C1      NOp   1
 Largest concise Abelian subgroup C1      NOp   1
                         Standard orientation:                         
 ---------------------------------------------------------------------
 Center     Atomic      Atomic             Coordinates (Angstroms)
 Number     Number       Type             X           Y           Z
 ---------------------------------------------------------------------
      1          6           0       -1.960877    3.983073    1.124971
      2          8           0       -3.200387    3.316131    1.197640
      3          6           0       -3.373646    3.080320   -1.207039
      4          6           0       -3.508640    2.402354    0.201001
      5          6           0       -4.923360    1.917144    0.488409
      6          6           0       -5.260192    0.682978   -0.328409
      7          6           0       -4.219877   -0.417491   -0.093246
      8          6           0       -2.814539    0.142567   -0.385419
      9          6           0       -1.609859   -0.756402   -0.056837
     10          6           0       -1.531851   -1.242978    1.401044
     11          6           0       -0.382874   -2.214556    1.659417
     12          6           0       -4.683102   -2.821264   -0.457743
     13          6           0       -4.793948   -3.903773   -1.504518
     14          7           0       -4.535142   -1.566511   -0.921975
     15          8           0       -2.440290    2.726800   -1.931777
     16          8           0       -4.228497    3.941721   -1.446653
     17          8           0       -6.543058    0.255579    0.056084
     18          8           0       -2.616127    1.323754    0.365392
     19          8           0       -1.639948   -1.847661   -0.939372
     20          8           0       -1.364026   -0.171545    2.301154
     21          8           0       -4.729395   -3.088612    0.726093
     22          1           0       -1.883906    4.576358    2.024580
     23          1           0       -1.917891    4.640100    0.264000
     24          1           0       -1.137633    3.282079    1.085635
     25          1           0       -5.632688    2.706076    0.286466
     26          1           0       -4.976963    1.667959    1.543453
     27          1           0       -5.273577    0.933953   -1.387556
     28          1           0       -4.296161   -0.732104    0.936267
     29          1           0       -2.740792    0.372670   -1.440197
     30          1           0       -0.736246   -0.143466   -0.256331
     31          1           0       -2.441731   -1.784910    1.638247
     32          1           0       -0.508539   -3.113384    1.076003
     33          1           0       -0.418570   -2.493083    2.704199
     34          1           0       -3.838503   -4.414066   -1.566204
     35          1           0       -5.046090   -3.521684   -2.485031
     36          1           0       -5.540949   -4.621640   -1.192925
     37          1           0       -4.392657   -1.465892   -1.903610
     38          1           0       -6.792135   -0.499390   -0.463270
     39          1           0       -0.754141   -2.190964   -1.028630
     40          1           0       -1.851277    0.584759    1.991743
     41          7           0        0.939313   -1.665963    1.405026
     42          6           0        1.612671   -1.840005    0.265358
     43          8           0        1.140948   -2.451317   -0.682307
     44          6           0        2.991789   -1.258842    0.182436
     45          6           0        3.374504   -0.118166    0.880299
     46          6           0        4.659155    0.385686    0.752285
     47          6           0        3.917051   -1.878431   -0.651582
     48          6           0        5.203969   -1.382818   -0.766298
     49          6           0        5.596651   -0.240840   -0.066895
     50          6           0        6.981518    0.297794   -0.197303
     51          6           0        7.204102    1.666918   -0.344140
     52          6           0        8.083146   -0.557503   -0.175601
     53          6           0        8.492618    2.167083   -0.466935
     54          6           0        9.372086   -0.057748   -0.295495
     55          6           0        9.581784    1.306675   -0.442356
     56          1           0        1.390654   -1.206273    2.162370
     57          1           0        2.679515    0.403928    1.512252
     58          1           0        4.931598    1.265017    1.306479
     59          1           0        3.626878   -2.747709   -1.210485
     60          1           0        5.899072   -1.876512   -1.420488
     61          1           0        6.370075    2.344438   -0.380840
     62          1           0        7.937577   -1.615072   -0.047511
     63          1           0        8.643161    3.225096   -0.587045
     64          1           0       10.208921   -0.732651   -0.268832
     65          1           0       10.580359    1.694233   -0.536560
 ---------------------------------------------------------------------
 Rotational constants (GHZ):           0.1903994           0.0434684           0.0380051
 Standard basis: 6-31+G(d) (6D, 7F)
 There are   742 symmetry adapted cartesian basis functions of A   symmetry.
 There are   742 symmetry adapted basis functions of A   symmetry.
   742 basis functions,  1268 primitive gaussians,   742 cartesian basis functions
   133 alpha electrons      133 beta electrons
       nuclear repulsion energy      3931.6723585211 Hartrees.
 NAtoms=   65 NActive=   65 NUniq=   65 SFac= 1.00D+00 NAtFMM=   60 NAOKFM=T Big=T
 Integral buffers will be    131072 words long.
 Raffenetti 1 integral format.
 Two-electron integral symmetry is turned on.
 One-electron integrals computed using PRISM.
 NBasis=   742 RedAO= T EigKep=  1.31D-06  NBF=   742
 NBsUse=   739 1.00D-06 EigRej=  9.43D-07 NBFU=   739
 ExpMin= 4.38D-02 ExpMax= 5.48D+03 ExpMxC= 8.25D+02 IAcc=3 IRadAn=         5 AccDes= 0.00D+00
 Harris functional with IExCor=  205 and IRadAn=       5 diagonalized for initial guess.
 HarFok:  IExCor=  205 AccDes= 0.00D+00 IRadAn=         5 IDoV= 1 UseB2=F ITyADJ=14
 ICtDFT=  3500011 ScaDFX=  1.000000  1.000000  1.000000  1.000000
 FoFCou: FMM=F IPFlag=           0 FMFlag=      100000 FMFlg1=        2001
         NFxFlg=           0 DoJE=T BraDBF=F KetDBF=T FulRan=T
         wScrn=  0.000000 ICntrl=       500 IOpCl=  0 I1Cent=   200000004 NGrid=           0
         NMat0=    1 NMatS0=      1 NMatT0=    0 NMatD0=    1 NMtDS0=    0 NMtDT0=    0
 Petite list used in FoFCou.
 Requested convergence on RMS density matrix=1.00D-08 within 128 cycles.
 Requested convergence on MAX density matrix=1.00D-06.
 Requested convergence on             energy=1.00D-06.
 No special actions if energy rises.
 SCF Done:  E(RHF) =  -1746.39068812     A.U. after   17 cycles
            NFock= 17  Conv=0.46D-08     -V/T= 2.0016
 SCF density gives NOpUse=  1 NOpAll=  1.

 **********************************************************************

            Population analysis using the SCF Density.

 **********************************************************************

 Orbital symmetries:
 BldTbl:  Degeneracy threshold= 1.00D-02
       Occupied  (A) (A) (A) (A) (A) (A) (A) (A) (A) (A) (A) (A)
                 (A) (A) (A) (A) (A) (A) (A) (A) (A) (A) (A) (A)
                 (A) (A) (A) (A) (A) (A) (A) (A) (A) (A) (A) (A)
                 (A) (A) (A) (A) (A) (A) (A) (A) (A) (A) (A) (A)
                 (A) (A) (A) (A) (A) (A) (A) (A) (A) (A) (A) (A)
                 (A) (A) (A) (A) (A) (A) (A) (A) (A) (A) (A) (A)
                 (A) (A) (A) (A) (A) (A) (A) (A) (A) (A) (A) (A)
                 (A) (A) (A) (A) (A) (A) (A) (A) (A) (A) (A) (A)
                 (A) (A) (A) (A) (A) (A) (A) (A) (A) (A) (A) (A)
                 (A) (A) (A) (A) (A) (A) (A) (A) (A) (A) (A) (A)
                 (A) (A) (A) (A) (A) (A) (A) (A) (A) (A) (A) (A)
                 (A)
       Virtual   (A) (A) (A) (A) (A) (A) (A) (A) (A) (A) (A) (A)
                 (A) (A) (A) (A) (A) (A) (A) (A) (A) (A) (A) (A)
                 (A) (A) (A) (A) (A) (A) (A) (A) (A) (A) (A) (A)
                 (A) (A) (A) (A) (A) (A) (A) (A) (A) (A) (A) (A)
                 (A) (A) (A) (A) (A) (A) (A) (A) (A) (A) (A) (A)
                 (A) (A) (A) (A) (A) (A) (A) (A) (A) (A) (A) (A)
                 (A) (A) (A) (A) (A) (A) (A) (A) (A) (A) (A) (A)
                 (A) (A) (A) (A) (A) (A) (A) (A) (A) (A) (A) (A)
                 (A) (A) (A) (A) (A) (A) (A) (A) (A) (A) (A) (A)
                 (A) (A) (A) (A) (A) (A) (A) (A) (A) (A) (A) (A)
                 (A) (A) (A) (A) (A) (A) (A) (A) (A) (A) (A) (A)
                 (A) (A) (A) (A) (A) (A) (A) (A) (A) (A) (A) (A)
                 (A) (A) (A) (A) (A) (A) (A) (A) (A) (A) (A) (A)
                 (A) (A) (A) (A) (A) (A) (A) (A) (A) (A) (A) (A)
                 (A) (A) (A) (A) (A) (A) (A) (A) (A) (A) (A) (A)
                 (A) (A) (A) (A) (A) (A) (A) (A) (A) (A) (A) (A)
                 (A) (A) (A) (A) (A) (A) (A) (A) (A) (A) (A) (A)
                 (A) (A) (A) (A) (A) (A) (A) (A) (A) (A) (A) (A)
                 (A) (A) (A) (A) (A) (A) (A) (A) (A) (A) (A) (A)
                 (A) (A) (A) (A) (A) (A) (A) (A) (A) (A) (A) (A)
                 (A) (A) (A) (A) (A) (A) (A) (A) (A) (A) (A) (A)
                 (A) (A) (A) (A) (A) (A) (A) (A) (A) (A) (A) (A)
                 (A) (A) (A) (A) (A) (A) (A) (A) (A) (A) (A) (A)
                 (A) (A) (A) (A) (A) (A) (A) (A) (A) (A) (A) (A)
                 (A) (A) (A) (A) (A) (A) (A) (A) (A) (A) (A) (A)
                 (A) (A) (A) (A) (A) (A) (A) (A) (A) (A) (A) (A)
                 (A) (A) (A) (A) (A) (A) (A) (A) (A) (A) (A) (A)
                 (A) (A) (A) (A) (A) (A) (A) (A) (A) (A) (A) (A)
                 (A) (A) (A) (A) (A) (A) (A) (A) (A) (A) (A) (A)
                 (A) (A) (A) (A) (A) (A) (A) (A) (A) (A) (A) (A)
                 (A) (A) (A) (A) (A) (A) (A) (A) (A) (A) (A) (A)
                 (A) (A) (A) (A) (A) (A) (A) (A) (A) (A) (A) (A)
                 (A) (A) (A) (A) (A) (A) (A) (A) (A) (A) (A) (A)
                 (A) (A) (A) (A) (A) (A) (A) (A) (A) (A) (A) (A)
                 (A) (A) (A) (A) (A) (A) (A) (A) (A) (A) (A) (A)
                 (A) (A) (A) (A) (A) (A) (A) (A) (A) (A) (A) (A)
                 (A) (A) (A) (A) (A) (A) (A) (A) (A) (A) (A) (A)
                 (A) (A) (A) (A) (A) (A) (A) (A) (A) (A) (A) (A)
                 (A) (A) (A) (A) (A) (A) (A) (A) (A) (A) (A) (A)
                 (A) (A) (A) (A) (A) (A) (A) (A) (A) (A) (A) (A)
                 (A) (A) (A) (A) (A) (A) (A) (A) (A) (A) (A) (A)
                 (A) (A) (A) (A) (A) (A) (A) (A) (A) (A) (A) (A)
                 (A) (A) (A) (A) (A) (A) (A) (A) (A) (A) (A) (A)
                 (A) (A) (A) (A) (A) (A) (A) (A) (A) (A) (A) (A)
                 (A) (A) (A) (A) (A) (A) (A) (A) (A) (A) (A) (A)
                 (A) (A) (A) (A) (A) (A) (A) (A) (A) (A) (A) (A)
                 (A) (A) (A) (A) (A) (A) (A) (A) (A) (A) (A) (A)
                 (A) (A) (A) (A) (A) (A) (A) (A) (A) (A) (A) (A)
                 (A) (A) (A) (A) (A) (A) (A) (A) (A) (A) (A) (A)
                 (A) (A) (A) (A) (A) (A) (A) (A) (A) (A) (A) (A)
                 (A) (A) (A) (A) (A) (A)
 The electronic state is 1-A.
 Alpha  occ. eigenvalues --  -20.47134 -20.46794 -20.46555 -20.46406 -20.45962
 Alpha  occ. eigenvalues --  -20.45055 -20.44090 -20.34016 -20.33520 -15.53039
 Alpha  occ. eigenvalues --  -15.50223 -11.29917 -11.26776 -11.21061 -11.20979
 Alpha  occ. eigenvalues --  -11.20762 -11.20185 -11.20093 -11.20032 -11.19965
 Alpha  occ. eigenvalues --  -11.19917 -11.19859 -11.19801 -11.19432 -11.19367
 Alpha  occ. eigenvalues --  -11.19239 -11.18789 -11.18667 -11.18419 -11.18009
 Alpha  occ. eigenvalues --  -11.17655 -11.16970 -11.16584 -11.15632 -11.15162
 Alpha  occ. eigenvalues --  -11.09746  -1.33322  -1.31815  -1.30155  -1.28145
 Alpha  occ. eigenvalues --   -1.27319  -1.26676  -1.23967  -1.21694  -1.17741
 Alpha  occ. eigenvalues --   -1.15152  -1.13542  -1.11242  -1.10913  -1.02332
 Alpha  occ. eigenvalues --   -0.98488  -0.97666  -0.97216  -0.96430  -0.95071
 Alpha  occ. eigenvalues --   -0.93355  -0.91405  -0.86235  -0.82987  -0.81892
 Alpha  occ. eigenvalues --   -0.80623  -0.78484  -0.77713  -0.75893  -0.74749
 Alpha  occ. eigenvalues --   -0.73049  -0.71858  -0.70916  -0.69608  -0.68988
 Alpha  occ. eigenvalues --   -0.67140  -0.63806  -0.62616  -0.62450  -0.62063
 Alpha  occ. eigenvalues --   -0.60991  -0.59884  -0.59146  -0.58307  -0.58037
 Alpha  occ. eigenvalues --   -0.57969  -0.57733  -0.57061  -0.56762  -0.55538
 Alpha  occ. eigenvalues --   -0.54718  -0.54414  -0.54309  -0.53280  -0.53177
 Alpha  occ. eigenvalues --   -0.52205  -0.51817  -0.50758  -0.50435  -0.49828
 Alpha  occ. eigenvalues --   -0.49099  -0.48595  -0.48397  -0.47817  -0.47100
 Alpha  occ. eigenvalues --   -0.46686  -0.46475  -0.46244  -0.45394  -0.44985
 Alpha  occ. eigenvalues --   -0.44751  -0.44620  -0.44494  -0.44013  -0.43680
 Alpha  occ. eigenvalues --   -0.42682  -0.41368  -0.40378  -0.39103  -0.37990
 Alpha  occ. eigenvalues --   -0.37745  -0.37507  -0.37177  -0.36006  -0.34715
 Alpha  occ. eigenvalues --   -0.34397  -0.33398  -0.32974  -0.32451  -0.32293
 Alpha  occ. eigenvalues --   -0.31437  -0.30002  -0.29441  -0.28429  -0.26413
 Alpha  occ. eigenvalues --   -0.24139  -0.22550  -0.22317
 Alpha virt. eigenvalues --    0.10563   0.12055   0.12365   0.12492   0.13530
 Alpha virt. eigenvalues --    0.13799   0.14163   0.14500   0.14745   0.15144
 Alpha virt. eigenvalues --    0.15374   0.15884   0.16102   0.16477   0.16640
 Alpha virt. eigenvalues --    0.16897   0.17308   0.17589   0.17926   0.18150
 Alpha virt. eigenvalues --    0.18686   0.18855   0.19189   0.20033   0.20284
 Alpha virt. eigenvalues --    0.20416   0.20769   0.20906   0.21236   0.21622
 Alpha virt. eigenvalues --    0.21863   0.22310   0.22926   0.23171   0.23275
 Alpha virt. eigenvalues --    0.23522   0.23922   0.24513   0.24784   0.25013
 Alpha virt. eigenvalues --    0.25070   0.25553   0.25744   0.25881   0.26412
 Alpha virt. eigenvalues --    0.26657   0.26897   0.27253   0.27474   0.27561
 Alpha virt. eigenvalues --    0.27976   0.28316   0.28673   0.29049   0.29206
 Alpha virt. eigenvalues --    0.29471   0.29605   0.30249   0.30468   0.31060
 Alpha virt. eigenvalues --    0.31288   0.31385   0.31775   0.31983   0.32130
 Alpha virt. eigenvalues --    0.32438   0.32861   0.32970   0.33506   0.33958
 Alpha virt. eigenvalues --    0.34046   0.34324   0.34370   0.34897   0.34946
 Alpha virt. eigenvalues --    0.35636   0.35673   0.35917   0.36113   0.36771
 Alpha virt. eigenvalues --    0.37058   0.37432   0.37492   0.37870   0.38079
 Alpha virt. eigenvalues --    0.38508   0.38620   0.38860   0.39398   0.39420
 Alpha virt. eigenvalues --    0.39670   0.39992   0.40530   0.40570   0.40856
 Alpha virt. eigenvalues --    0.41090   0.41374   0.41442   0.42079   0.42440
 Alpha virt. eigenvalues --    0.42476   0.43000   0.43381   0.43624   0.43692
 Alpha virt. eigenvalues --    0.44340   0.44484   0.44954   0.45323   0.45628
 Alpha virt. eigenvalues --    0.45765   0.45775   0.46392   0.46625   0.46819
 Alpha virt. eigenvalues --    0.47285   0.47398   0.47464   0.48101   0.48220
 Alpha virt. eigenvalues --    0.48617   0.48758   0.49149   0.49732   0.49795
 Alpha virt. eigenvalues --    0.49921   0.50247   0.50629   0.50747   0.51031
 Alpha virt. eigenvalues --    0.51391   0.51699   0.51733   0.52033   0.52410
 Alpha virt. eigenvalues --    0.52827   0.52901   0.53150   0.53596   0.53742
 Alpha virt. eigenvalues --    0.54031   0.54268   0.54473   0.54733   0.54967
 Alpha virt. eigenvalues --    0.55280   0.55456   0.55927   0.56257   0.56480
 Alpha virt. eigenvalues --    0.56768   0.57013   0.57312   0.57583   0.57860
 Alpha virt. eigenvalues --    0.58314   0.58433   0.58921   0.58963   0.59366
 Alpha virt. eigenvalues --    0.59519   0.59728   0.60026   0.60770   0.61155
 Alpha virt. eigenvalues --    0.61277   0.61757   0.62016   0.62305   0.62831
 Alpha virt. eigenvalues --    0.63074   0.63328   0.63432   0.63891   0.64328
 Alpha virt. eigenvalues --    0.65017   0.65381   0.65519   0.65839   0.66285
 Alpha virt. eigenvalues --    0.66425   0.67336   0.67551   0.67748   0.68081
 Alpha virt. eigenvalues --    0.68814   0.69978   0.70184   0.70921   0.71260
 Alpha virt. eigenvalues --    0.71765   0.72507   0.72961   0.73741   0.74087
 Alpha virt. eigenvalues --    0.74279   0.75348   0.75736   0.76881   0.77401
 Alpha virt. eigenvalues --    0.78069   0.78612   0.78969   0.79572   0.79786
 Alpha virt. eigenvalues --    0.80687   0.81041   0.81894   0.83019   0.83440
 Alpha virt. eigenvalues --    0.84420   0.88315   0.88525   0.89934   0.90611
 Alpha virt. eigenvalues --    0.92427   0.94417   0.95624   0.96687   0.96988
 Alpha virt. eigenvalues --    0.97980   0.98786   0.99772   1.00131   1.00704
 Alpha virt. eigenvalues --    1.00984   1.01452   1.01961   1.02336   1.02666
 Alpha virt. eigenvalues --    1.03477   1.04013   1.04604   1.04930   1.05361
 Alpha virt. eigenvalues --    1.06168   1.06223   1.06919   1.07273   1.07368
 Alpha virt. eigenvalues --    1.08313   1.09260   1.09313   1.09921   1.10211
 Alpha virt. eigenvalues --    1.10932   1.11296   1.11955   1.12642   1.13303
 Alpha virt. eigenvalues --    1.14099   1.14725   1.15263   1.15951   1.16486
 Alpha virt. eigenvalues --    1.16561   1.17475   1.17943   1.18142   1.18569
 Alpha virt. eigenvalues --    1.19567   1.19641   1.20266   1.21516   1.21642
 Alpha virt. eigenvalues --    1.22343   1.22920   1.23745   1.23999   1.24423
 Alpha virt. eigenvalues --    1.24635   1.25339   1.25400   1.26532   1.27626
 Alpha virt. eigenvalues --    1.27799   1.28682   1.29316   1.29863   1.31311
 Alpha virt. eigenvalues --    1.31727   1.32312   1.32524   1.32826   1.33293
 Alpha virt. eigenvalues --    1.33518   1.34637   1.34753   1.35325   1.36548
 Alpha virt. eigenvalues --    1.37117   1.37580   1.38416   1.39130   1.39682
 Alpha virt. eigenvalues --    1.40029   1.40810   1.41002   1.41371   1.42145
 Alpha virt. eigenvalues --    1.42603   1.43667   1.43933   1.44451   1.45254
 Alpha virt. eigenvalues --    1.45584   1.45956   1.46913   1.47510   1.47791
 Alpha virt. eigenvalues --    1.48865   1.49302   1.49962   1.50427   1.50954
 Alpha virt. eigenvalues --    1.51129   1.51657   1.52921   1.53721   1.53885
 Alpha virt. eigenvalues --    1.54383   1.55088   1.56084   1.56516   1.57585
 Alpha virt. eigenvalues --    1.58003   1.58628   1.58858   1.60591   1.60671
 Alpha virt. eigenvalues --    1.62069   1.62828   1.63289   1.63856   1.63975
 Alpha virt. eigenvalues --    1.65213   1.65549   1.66854   1.67639   1.68535
 Alpha virt. eigenvalues --    1.69887   1.70466   1.70946   1.71633   1.72325
 Alpha virt. eigenvalues --    1.72642   1.73696   1.74059   1.74286   1.74765
 Alpha virt. eigenvalues --    1.74942   1.75738   1.76343   1.76891   1.77322
 Alpha virt. eigenvalues --    1.77408   1.77865   1.78543   1.79066   1.79673
 Alpha virt. eigenvalues --    1.80101   1.80382   1.81034   1.81261   1.81589
 Alpha virt. eigenvalues --    1.82108   1.82456   1.82859   1.83209   1.83412
 Alpha virt. eigenvalues --    1.84392   1.84432   1.85111   1.85302   1.86194
 Alpha virt. eigenvalues --    1.86586   1.87043   1.88005   1.88379   1.89092
 Alpha virt. eigenvalues --    1.90380   1.91568   1.91640   1.93566   1.93828
 Alpha virt. eigenvalues --    1.95198   1.95753   1.97220   1.98042   1.98454
 Alpha virt. eigenvalues --    1.99147   2.00820   2.02885   2.03419   2.04453
 Alpha virt. eigenvalues --    2.05276   2.06141   2.07700   2.08184   2.10024
 Alpha virt. eigenvalues --    2.10553   2.12323   2.13422   2.13563   2.14532
 Alpha virt. eigenvalues --    2.15583   2.16271   2.16787   2.17457   2.18088
 Alpha virt. eigenvalues --    2.19062   2.19180   2.19799   2.20230   2.20864
 Alpha virt. eigenvalues --    2.21910   2.22040   2.23483   2.23858   2.24376
 Alpha virt. eigenvalues --    2.24949   2.25923   2.26927   2.27484   2.28143
 Alpha virt. eigenvalues --    2.28733   2.29740   2.30915   2.32271   2.33292
 Alpha virt. eigenvalues --    2.34001   2.34191   2.34869   2.35034   2.36106
 Alpha virt. eigenvalues --    2.36979   2.37320   2.38338   2.39058   2.39275
 Alpha virt. eigenvalues --    2.40074   2.40199   2.42164   2.42724   2.42870
 Alpha virt. eigenvalues --    2.43635   2.43919   2.44616   2.45337   2.45973
 Alpha virt. eigenvalues --    2.46621   2.47239   2.47614   2.48601   2.48946
 Alpha virt. eigenvalues --    2.49454   2.49599   2.50456   2.50810   2.51493
 Alpha virt. eigenvalues --    2.52866   2.52947   2.53157   2.53628   2.54927
 Alpha virt. eigenvalues --    2.56068   2.56590   2.56705   2.57046   2.57446
 Alpha virt. eigenvalues --    2.59094   2.59556   2.60858   2.62260   2.62827
 Alpha virt. eigenvalues --    2.63928   2.64296   2.64594   2.65099   2.66787
 Alpha virt. eigenvalues --    2.67427   2.67667   2.68230   2.68517   2.68644
 Alpha virt. eigenvalues --    2.69270   2.69818   2.70108   2.71733   2.72164
 Alpha virt. eigenvalues --    2.73156   2.74588   2.75116   2.76836   2.78188
 Alpha virt. eigenvalues --    2.79136   2.79788   2.80319   2.82277   2.82744
 Alpha virt. eigenvalues --    2.83399   2.85802   2.86223   2.87349   2.87820
 Alpha virt. eigenvalues --    2.89833   2.90801   2.93118   2.94749   2.95224
 Alpha virt. eigenvalues --    2.97316   2.97506   2.98667   2.99668   3.00887
 Alpha virt. eigenvalues --    3.01170   3.02519   3.03052   3.04852   3.05590
 Alpha virt. eigenvalues --    3.06776   3.07319   3.10238   3.10578   3.11377
 Alpha virt. eigenvalues --    3.12037   3.12501   3.13681   3.15649   3.16097
 Alpha virt. eigenvalues --    3.16196   3.17110   3.17292   3.18094   3.18687
 Alpha virt. eigenvalues --    3.20720   3.22108   3.22370   3.22569   3.24537
 Alpha virt. eigenvalues --    3.26761   3.27579   3.29122   3.30689   3.31419
 Alpha virt. eigenvalues --    3.33285   3.33416   3.35967   3.38310   3.40218
 Alpha virt. eigenvalues --    3.40941   3.45980   3.49925   3.53972   3.54231
 Alpha virt. eigenvalues --    3.57449   3.57675   3.59206   3.60832   3.62590
 Alpha virt. eigenvalues --    3.64791   3.65630   3.67371   3.72774   3.73495
 Alpha virt. eigenvalues --    3.77021   3.81234   3.82950   3.86268   3.92953
 Alpha virt. eigenvalues --    4.72627   4.73089   4.73634   4.74933   4.76161
 Alpha virt. eigenvalues --    4.78658   4.80147   4.81661   4.84565   4.85834
 Alpha virt. eigenvalues --    4.86453   4.86994   4.88946   4.89098   4.93849
 Alpha virt. eigenvalues --    4.94936   4.95801   4.97707   5.00515   5.01994
 Alpha virt. eigenvalues --    5.02469   5.06618   5.08711   5.11769   5.16589
 Alpha virt. eigenvalues --    5.17523   5.22516   5.23421   5.25264   5.25771
 Alpha virt. eigenvalues --    5.28528   5.29467   5.32906   5.36161   5.48088
 Alpha virt. eigenvalues --    5.64388
          Condensed to atoms (all electrons):
 Mulliken charges:
               1
     1  C   -0.193017
     2  O   -0.369451
     3  C    0.779103
     4  C   -0.045171
     5  C   -0.477010
     6  C    0.270528
     7  C    0.037792
     8  C   -0.703401
     9  C   -0.116266
    10  C    0.204224
    11  C   -0.200665
    12  C    0.502415
    13  C   -0.710510
    14  N   -0.720726
    15  O   -0.660646
    16  O   -0.655522
    17  O   -0.669050
    18  O   -0.407786
    19  O   -0.801608
    20  O   -0.833703
    21  O   -0.560058
    22  H    0.164120
    23  H    0.210359
    24  H    0.176427
    25  H    0.274933
    26  H    0.226203
    27  H    0.207414
    28  H    0.280884
    29  H    0.274732
    30  H    0.222977
    31  H    0.224740
    32  H    0.244799
    33  H    0.210685
    34  H    0.236381
    35  H    0.191125
    36  H    0.225739
    37  H    0.477501
    38  H    0.512734
    39  H    0.664169
    40  H    0.654953
    41  N   -0.589730
    42  C   -0.323585
    43  O   -0.633085
    44  C    1.078577
    45  C   -0.607997
    46  C   -0.529921
    47  C   -0.386406
    48  C   -0.413189
    49  C    0.502346
    50  C    0.606879
    51  C   -0.358930
    52  C   -0.320356
    53  C   -0.383831
    54  C   -0.365667
    55  C   -0.267345
    56  H    0.462391
    57  H    0.256963
    58  H    0.239191
    59  H    0.272657
    60  H    0.237697
    61  H    0.244921
    62  H    0.236605
    63  H    0.233476
    64  H    0.229185
    65  H    0.228806
 Sum of Mulliken charges =  -1.00000
 Mulliken charges with hydrogens summed into heavy atoms:
               1
     1  C    0.357889
     2  O   -0.369451
     3  C    0.779103
     4  C   -0.045171
     5  C    0.024125
     6  C    0.477942
     7  C    0.318676
     8  C   -0.428669
     9  C    0.106711
    10  C    0.428964
    11  C    0.254820
    12  C    0.502415
    13  C   -0.057266
    14  N   -0.243225
    15  O   -0.660646
    16  O   -0.655522
    17  O   -0.156316
    18  O   -0.407786
    19  O   -0.137439
    20  O   -0.178750
    21  O   -0.560058
    41  N   -0.127339
    42  C   -0.323585
    43  O   -0.633085
    44  C    1.078577
    45  C   -0.351034
    46  C   -0.290730
    47  C   -0.113749
    48  C   -0.175492
    49  C    0.502346
    50  C    0.606879
    51  C   -0.114009
    52  C   -0.083751
    53  C   -0.150354
    54  C   -0.136482
    55  C   -0.038539
 DipInt: DoE/N= T F RetVal/Mat= T F Init=T NMatP=  1 IDeriv=0 Min/MaxMlt=  0  4
 Entering OneElI...
 OneElI was handed   132822726 working-precision words.
 Multipole integrals L=0 to 4 MinM= 0 MaxM= 0.
 Requested accuracy = 0.1000D-12
 ShPair: Thresh= 1.00D-13 NBox=     0 BxSize= 0.00D+00 RnKept= 3.11D+01
         NSMCal=                28441 NSMKep=               19206
 PrmmSu-InSpLW:  IPartL=    0 NPrtUS=    1 NPrtUL=    1 DoSpLW=F IThBeg=    0 IThEnd=    0 NThAct=    1.
 PrSmSu:  IncTry=   512 NBBP=          19206 NTPThr=   100 NPartT=    1 Incr=         192 LDynOK=F GPUOK=F.
 PrsmSu:  NPrtUS=   1 ThrOK=F IAlg=2 LenDen=           0 ISkipM=0 DoSpLW=F IThBeg=    0 IThEnd=    0.
 Prism:   IPart=     0 DynPar=F LinDyn=F Incr=         192.
 PRISM was handed   131175964 working-precision words and 19206 shell-pairs
 IPart=  0 NShTot=       19206 NBatch=         131 AvBLen=       146.6
 PrsmSu-ThDecC:  IPartSL=    0    0 NPrtUSL=    1    1 IThBeg=    0 IThEnd=    0 CPU=   -1 GPU=   -1 NThAct=    1.
 PrSmSu:  NxtVal=            193.
 Electronic moments (au):
       -266.00000000          7.43386634         -4.15157773          1.31773208
     -21405.35708038      -4383.50620588      -1154.62124382         36.37154680
          4.35740460         22.25019958    -123619.82912336      -4178.00172078
       -527.77839577      15445.35026806     -12272.12090816      10803.80273949
       2793.51234539       -159.36635022       1935.65688441        944.41072280
   -3750915.97088204    -166345.31526545     -14048.03509491    -240989.43495259
      80461.48052410       6660.17803079      -5883.45877443      -3283.47508201
       2221.40988245    -266373.31430274     -50923.24439308     -25204.43256849
       1324.25160538     -14112.94446963       3091.81160093
 Electronic spatial extent (au):  <R**2>=          26943.4845
 DipInt: DoE/N= F T RetVal/Mat= T F Init=T NMatP=  1 IDeriv=0 Min/MaxMlt=  0  4
 Nuclear    moments (au):
        265.00000000         -0.00000000         -0.00000000          0.00000000
      21196.28650576       4182.52790551        977.69200568          0.00000000
         -0.00000000          0.00000000     124160.52956913       3972.87740846
        559.93249023     -15113.30804994      12002.18553531     -10921.61419519
      -2826.28854680         69.10005690      -1841.33028273      -1112.38675621
    3670394.26249122     149010.01091684       9808.33274287     243553.63475839
     -79882.51399474      -4574.48298760       7010.52371949       3377.49409671
      -1912.23309399     248754.15004965      35835.16116838      21465.78195755
         94.82064227      13586.21195565      -2696.55936653
 Total      moments (au):
         -1.00000000          7.43386634         -4.15157773          1.31773208
       -209.07057462       -200.97830037       -176.92923814         36.37154680
          4.35740460         22.25019958        540.70044577       -205.12431232
         32.15409446        332.04221812       -269.93537285       -117.81145571
        -32.77620141        -90.26629331         94.32660168       -167.97603341
     -80521.70839083     -17335.30434862      -4239.70235205       2564.19980580
        578.96652936       2085.69504319       1127.06494506         94.01901470
        309.17678846     -17619.16425310     -15088.08322470      -3738.65061094
       1419.07224765       -526.73251398        395.25223440
 Traceless Quadrup. (au):
        -13.41120358         -5.31892933         18.73013291         36.37154680
          4.35740460         22.25019958
 Charge=             -1.0000 electrons
 Dipole moment (field-independent basis, Debye):
    X=             18.8950    Y=            -10.5523    Z=              3.3493  Tot=             21.8995
 Quadrupole moment (field-independent basis, Debye-Ang):
   XX=           -281.2071   YY=           -270.3227   ZZ=           -237.9759
   XY=             48.9210   XZ=              5.8609   YZ=             29.9273
 Traceless Quadrupole moment (field-independent basis, Debye-Ang):
   XX=            -18.0385   YY=             -7.1541   ZZ=             25.1927
   XY=             48.9210   XZ=              5.8609   YZ=             29.9273
 Octapole moment (field-independent basis, Debye-Ang**2):
  XXX=            384.8497  YYY=           -145.9996  ZZZ=             22.8860  XYY=            236.3349
  XXY=           -192.1296  XXZ=            -83.8537  XZZ=            -23.3288  YZZ=            -64.2481
  YYZ=             67.1380  XYZ=           -119.5589
 Hexadecapole moment (field-independent basis, Debye-Ang**3):
 XXXX=         -30328.3365 YYYY=          -6529.3069 ZZZZ=          -1596.8752 XXXY=            965.8006
 XXXZ=            218.0666 YYYX=            785.5728 YYYZ=            424.5067 ZZZX=             35.4121
 ZZZY=            116.4508 XXYY=          -6636.2221 XXZZ=          -5682.8956 YYZZ=          -1408.1551
 XXYZ=            534.4907 YYXZ=           -198.3927 ZZXY=            148.8709
 N-N= 3.931672358521D+03 E-N=-1.198537360265D+04  KE= 1.743530654893D+03
 Entering OneElI...
 OneElI was handed   133095947 working-precision words.
 Calculate electrostatic properties
    NBasis =   742  MinDer = 0  MaxDer = 0
    NGrid  =    65  NMatD  =   1
 Requested accuracy = 0.1000D-12
 PrtBox:  NBox=     1 Levels=  1 BoxLen=   57.85 SMaxX=       32.83
          Shift=           12.835274            8.733633            4.696029
 Box      1 Number                   0 centers from      1 to    238:
 ShPair: Thresh= 1.00D-13 NBox=     1 BxSize= 5.79D+01 RnKept= 3.06D+01
         NSMCal=                28441 NSMKep=               17329
 PrmmSu-InSpLW:  IPartL=    0 NPrtUS=    8 NPrtUL=    1 DoSpLW=F IThBeg=    0 IThEnd=    7 NThAct=    8.
 PrSmSu:  IncTry=   512 NBBP=        1126385 NTPThr=   100 NPartT=    8 Incr=         512 LDynOK=F GPUOK=F.
 PrsmSu:  NPrtUS=   8 ThrOK=T IAlg=2 LenDen=           0 ISkipM=0 DoSpLW=F IThBeg=    0 IThEnd=    7.
 Prism:   IPart=     0 DynPar=F LinDyn=F Incr=         512.
 PRISM was handed    16062891 working-precision words and 17329 shell-pairs
 PRISM was handed    16062891 working-precision words and 17329 shell-pairs
 PRISM was handed    16062891 working-precision words and 17329 shell-pairs
 PRISM was handed    16062891 working-precision words and 17329 shell-pairs
 PRISM was handed    16062891 working-precision words and 17329 shell-pairs
 PRISM was handed    16062891 working-precision words and 17329 shell-pairs
 PRISM was handed    16062891 working-precision words and 17329 shell-pairs
 PRISM was handed    16062891 working-precision words and 17329 shell-pairs
 IPart=  1 NShTot=      141570 NBatch=        2178 AvBLen=        65.0
 PrsmSu-ThDecC:  IPartSL=    1    0 NPrtUSL=    8    1 IThBeg=    0 IThEnd=    7 CPU=   -1 GPU=   -1 NThAct=    8.
 IPart=  0 NShTot=      141895 NBatch=        2183 AvBLen=        65.0
 PrsmSu-ThDecC:  IPartSL=    0    0 NPrtUSL=    8    1 IThBeg=    0 IThEnd=    7 CPU=   -1 GPU=   -1 NThAct=    7.
 IPart=  6 NShTot=      139555 NBatch=        2147 AvBLen=        65.0
 PrsmSu-ThDecC:  IPartSL=    6    0 NPrtUSL=    8    1 IThBeg=    0 IThEnd=    7 CPU=   -1 GPU=   -1 NThAct=    6.
 IPart=  7 NShTot=      139425 NBatch=        2145 AvBLen=        65.0
 PrsmSu-ThDecC:  IPartSL=    7    0 NPrtUSL=    8    1 IThBeg=    0 IThEnd=    7 CPU=   -1 GPU=   -1 NThAct=    5.
 IPart=  5 NShTot=      140465 NBatch=        2161 AvBLen=        65.0
 PrsmSu-ThDecC:  IPartSL=    5    0 NPrtUSL=    8    1 IThBeg=    0 IThEnd=    7 CPU=   -1 GPU=   -1 NThAct=    4.
 IPart=  4 NShTot=      140855 NBatch=        2167 AvBLen=        65.0
 PrsmSu-ThDecC:  IPartSL=    4    0 NPrtUSL=    8    1 IThBeg=    0 IThEnd=    7 CPU=   -1 GPU=   -1 NThAct=    3.
 IPart=  3 NShTot=      141245 NBatch=        2173 AvBLen=        65.0
 PrsmSu-ThDecC:  IPartSL=    3    0 NPrtUSL=    8    1 IThBeg=    0 IThEnd=    7 CPU=   -1 GPU=   -1 NThAct=    2.
 IPart=  2 NShTot=      141375 NBatch=        2175 AvBLen=        65.0
 PrsmSu-ThDecC:  IPartSL=    2    0 NPrtUSL=    8    1 IThBeg=    0 IThEnd=    7 CPU=   -1 GPU=   -1 NThAct=    1.
 PrSmSu:  NxtVal=           4097.
 --------------------------------------------------------
       Center         ----      EFG at Nuclei      ----
                      3XX-RR        3YY-RR        3ZZ-RR
 --------------------------------------------------------
     1   Atom       -0.237310      0.048817      0.188493
     2   Atom       -0.441390      0.187579      0.253811
     3   Atom        0.035304     -0.118504      0.083201
     4   Atom        0.055475     -0.239740      0.184264
     5   Atom        0.017230      0.005454     -0.022683
     6   Atom       -0.282731      0.126606      0.156125
     7   Atom        0.118189     -0.143735      0.025546
     8   Atom        0.108146     -0.228427      0.120281
     9   Atom        0.173511     -0.129953     -0.043558
    10   Atom        0.158808     -0.148796     -0.010011
    11   Atom       -0.239308      0.097811      0.141497
    12   Atom       -0.551444      0.190969      0.360475
    13   Atom        0.033027     -0.011362     -0.021665
    14   Atom        0.863626     -0.408907     -0.454718
    15   Atom       -0.590660      0.361704      0.228956
    16   Atom       -0.327677     -0.658841      0.986519
    17   Atom       -0.662196     -0.108097      0.770294
    18   Atom        0.624225     -1.389040      0.764815
    19   Atom       -0.267927     -0.258422      0.526349
    20   Atom        0.988355     -1.284593      0.296238
    21   Atom       -0.607797      1.416572     -0.808775
    22   Atom        0.150091      0.019660     -0.169752
    23   Atom        0.145426     -0.016062     -0.129364
    24   Atom       -0.126442     -0.041910      0.168353
    25   Atom       -0.053143     -0.090825      0.143968
    26   Atom        0.155965      0.128257     -0.284222
    27   Atom        0.139325      0.131745     -0.271070
    28   Atom        0.155823      0.114220     -0.270043
    29   Atom        0.141815      0.135086     -0.276902
    30   Atom       -0.144954      0.009491      0.135463
    31   Atom       -0.163406      0.035954      0.127453
    32   Atom        0.141123     -0.168838      0.027715
    33   Atom        0.142923      0.135199     -0.278122
    34   Atom       -0.205749      0.051414      0.154335
    35   Atom        0.142262      0.089929     -0.232192
    36   Atom       -0.067517     -0.052491      0.120008
    37   Atom        0.245287      0.168857     -0.414144
    38   Atom        0.182798     -0.217257      0.034459
    39   Atom       -0.357502      0.133086      0.224417
    40   Atom        0.068291     -0.223907      0.155616
    41   Atom       -0.243121      0.557261     -0.314140
    42   Atom        0.171998     -0.314276      0.142278
    43   Atom        0.812999     -0.580104     -0.232895
    44   Atom        0.046792      0.028766     -0.075558
    45   Atom        0.141236      0.020631     -0.161867
    46   Atom        0.134582     -0.013611     -0.120971
    47   Atom        0.163703     -0.000541     -0.163162
    48   Atom        0.133145     -0.008039     -0.125107
    49   Atom        0.083822      0.027852     -0.111674
    50   Atom        0.125487      0.197804     -0.323290
    51   Atom        0.172715      0.153470     -0.326185
    52   Atom        0.190038      0.129410     -0.319448
    53   Atom        0.202785      0.141015     -0.343800
    54   Atom        0.164214      0.175348     -0.339562
    55   Atom        0.142634      0.186145     -0.328779
    56   Atom        0.062655      0.108765     -0.171420
    57   Atom       -0.044920      0.046283     -0.001362
    58   Atom        0.123189     -0.161997      0.038808
    59   Atom        0.126566     -0.157618      0.031052
    60   Atom       -0.048372      0.059334     -0.010962
    61   Atom       -0.135672     -0.038673      0.174345
    62   Atom        0.142867     -0.312220      0.169353
    63   Atom        0.143611     -0.313473      0.169862
    64   Atom       -0.139391     -0.036670      0.176061
    65   Atom       -0.264008      0.090870      0.173138
 --------------------------------------------------------
                        XY            XZ            YZ
 --------------------------------------------------------
     1   Atom       -0.248675     -0.001386     -0.020860
     2   Atom       -1.397151     -0.125359     -1.195025
     3   Atom       -0.362655     -0.194100     -0.189587
     4   Atom        0.221102     -0.154364     -0.221058
     5   Atom       -0.044453      0.037625     -0.051314
     6   Atom       -0.126935      0.126158      0.078382
     7   Atom       -0.087931     -0.061072     -0.228321
     8   Atom       -0.050182     -0.046906     -0.252411
     9   Atom        0.020837     -0.012334     -0.236882
    10   Atom        0.014940     -0.049495     -0.240479
    11   Atom       -0.185918      0.085170      0.075520
    12   Atom        0.117800     -0.010219      0.048547
    13   Atom       -0.006932     -0.018373     -0.035482
    14   Atom       -0.273278      0.035109     -0.000050
    15   Atom       -0.293309      0.645856     -0.960083
    16   Atom        0.424227     -0.820519     -0.174707
    17   Atom       -1.253935      0.350529     -0.932730
    18   Atom        0.780408     -0.668414     -0.885144
    19   Atom        0.720283      0.158652     -1.438631
    20   Atom        0.647501     -0.622245     -0.805453
    21   Atom        0.295220      0.085392      0.586497
    22   Atom       -0.028832     -0.026870     -0.223562
    23   Atom       -0.024197      0.010747      0.222335
    24   Atom        0.224222      0.010216     -0.009404
    25   Atom        0.227164     -0.060114      0.056226
    26   Atom       -0.007380      0.021443      0.105466
    27   Atom       -0.002697     -0.004344      0.094295
    28   Atom       -0.009947      0.024808      0.117616
    29   Atom       -0.002264      0.023230      0.078508
    30   Atom       -0.199834      0.068727      0.040352
    31   Atom       -0.179818      0.081355      0.048254
    32   Atom       -0.049598     -0.025300     -0.212196
    33   Atom       -0.011065      0.012776      0.120318
    34   Atom        0.196593      0.022421     -0.018692
    35   Atom        0.037617     -0.103232      0.151978
    36   Atom       -0.221790      0.095467      0.086227
    37   Atom       -0.026839      0.091551      0.056456
    38   Atom       -0.176940     -0.092263     -0.347516
    39   Atom        0.227941      0.054188     -0.056217
    40   Atom        0.289525     -0.132302      0.150937
    41   Atom       -0.429730      0.187610     -0.353681
    42   Atom        0.309009     -0.061522      0.255800
    43   Atom        0.203708     -1.078152     -0.384464
    44   Atom        0.033742     -0.096654      0.202042
    45   Atom        0.109153     -0.121812      0.227838
    46   Atom        0.082459     -0.113245      0.191643
    47   Atom        0.103904     -0.120269      0.265012
    48   Atom        0.101927     -0.094529      0.196357
    49   Atom        0.059340     -0.121532      0.259109
    50   Atom       -0.036238     -0.021801     -0.050038
    51   Atom        0.019655     -0.025962     -0.056564
    52   Atom        0.000057     -0.026904     -0.052746
    53   Atom       -0.011542     -0.031841     -0.051031
    54   Atom        0.029662     -0.027920     -0.053951
    55   Atom       -0.025506     -0.024399     -0.049439
    56   Atom       -0.162852     -0.203469     -0.236956
    57   Atom        0.141815      0.190331     -0.144230
    58   Atom       -0.105082     -0.055997     -0.213571
    59   Atom       -0.104807     -0.058668     -0.211328
    60   Atom        0.139278      0.194361     -0.146090
    61   Atom        0.233555     -0.009861      0.013173
    62   Atom       -0.063310      0.007829      0.058311
    63   Atom       -0.066695      0.008828      0.055275
    64   Atom        0.236180     -0.008074      0.009910
    65   Atom       -0.161790      0.040621      0.017655
 --------------------------------------------------------


 ---------------------------------------------------------------------------------
              Nuclear Quadrupole Coupling Constant in Principal Axis System
 ---------------------------------------------------------------------------------

       Atom             a.u.   MegaHertz   Gauss  10(-4) cm-1        Axes

              Baa    -0.4688     2.252     0.803     0.751  0.1894  0.8632 -0.4680
    14 N(14)  Bbb    -0.4519     2.170     0.774     0.724  0.0726  0.4630  0.8834
              Bcc     0.9207    -4.422    -1.578    -1.475  0.9792 -0.2013  0.0250
 
              Baa    -0.4696     2.255     0.805     0.752 -0.6473 -0.0084  0.7622
    41 N(14)  Bbb    -0.4084     1.962     0.700     0.654  0.6577  0.4993  0.5640
              Bcc     0.8780    -4.217    -1.505    -1.407 -0.3853  0.8664 -0.3177
 

 ---------------------------------------------------------------------------------

 No NMR shielding tensors so no spin-rotation constants.
 Leave Link  601 at Fri Sep 16 02:13:28 2022, MaxMem=   134217728 cpu:               2.9 elap:               0.4
 FitSet:  NAtFit=    65 NAtPot=    65 NAtFrz=     0 MDM=    69 TotChg=  -1.00000
 Breneman (CHELPG) radii used.
 Atom Element Radius
    1     6    1.50
    2     8    1.70
    3     6    1.50
    4     6    1.50
    5     6    1.50
    6     6    1.50
    7     6    1.50
    8     6    1.50
    9     6    1.50
   10     6    1.50
   11     6    1.50
   12     6    1.50
   13     6    1.50
   14     7    1.70
   15     8    1.70
   16     8    1.70
   17     8    1.70
   18     8    1.70
   19     8    1.70
   20     8    1.70
   21     8    1.70
   22     1    1.45
   23     1    1.45
   24     1    1.45
   25     1    1.45
   26     1    1.45
   27     1    1.45
   28     1    1.45
   29     1    1.45
   30     1    1.45
   31     1    1.45
   32     1    1.45
   33     1    1.45
   34     1    1.45
   35     1    1.45
   36     1    1.45
   37     1    1.45
   38     1    1.45
   39     1    1.45
   40     1    1.45
   41     7    1.70
   42     6    1.50
   43     8    1.70
   44     6    1.50
   45     6    1.50
   46     6    1.50
   47     6    1.50
   48     6    1.50
   49     6    1.50
   50     6    1.50
   51     6    1.50
   52     6    1.50
   53     6    1.50
   54     6    1.50
   55     6    1.50
   56     1    1.45
   57     1    1.45
   58     1    1.45
   59     1    1.45
   60     1    1.45
   61     1    1.45
   62     1    1.45
   63     1    1.45
   64     1    1.45
   65     1    1.45
 Generate Potential Derived Charges using the Breneman model, NDens= 1.
 Grid spacing= 0.300 Box extension= 2.800
 NStep X,Y,Z=   78     51     36   Total possible points=      143208
 Number of Points to Fit=   32352
 Approximate Molecular Volume= 2896.80 A**3

 **********************************************************************

            Electrostatic Properties Using The SCF Density.

 **********************************************************************

       Atomic Center    1 is at  -1.960877  3.983073  1.124971
       Atomic Center    2 is at  -3.200387  3.316131  1.197640
       Atomic Center    3 is at  -3.373646  3.080320 -1.207039
       Atomic Center    4 is at  -3.508640  2.402354  0.201001
       Atomic Center    5 is at  -4.923360  1.917144  0.488409
       Atomic Center    6 is at  -5.260192  0.682978 -0.328409
       Atomic Center    7 is at  -4.219877 -0.417491 -0.093246
       Atomic Center    8 is at  -2.814539  0.142567 -0.385419
       Atomic Center    9 is at  -1.609859 -0.756402 -0.056837
       Atomic Center   10 is at  -1.531851 -1.242978  1.401044
       Atomic Center   11 is at  -0.382874 -2.214556  1.659417
       Atomic Center   12 is at  -4.683102 -2.821264 -0.457743
       Atomic Center   13 is at  -4.793948 -3.903773 -1.504518
       Atomic Center   14 is at  -4.535142 -1.566511 -0.921975
       Atomic Center   15 is at  -2.440290  2.726800 -1.931777
       Atomic Center   16 is at  -4.228497  3.941721 -1.446653
       Atomic Center   17 is at  -6.543058  0.255579  0.056084
       Atomic Center   18 is at  -2.616127  1.323754  0.365392
       Atomic Center   19 is at  -1.639948 -1.847661 -0.939372
       Atomic Center   20 is at  -1.364026 -0.171545  2.301154
       Atomic Center   21 is at  -4.729395 -3.088612  0.726093
       Atomic Center   22 is at  -1.883906  4.576358  2.024580
       Atomic Center   23 is at  -1.917891  4.640100  0.264000
       Atomic Center   24 is at  -1.137633  3.282079  1.085635
       Atomic Center   25 is at  -5.632688  2.706076  0.286466
       Atomic Center   26 is at  -4.976963  1.667959  1.543453
       Atomic Center   27 is at  -5.273577  0.933953 -1.387556
       Atomic Center   28 is at  -4.296161 -0.732104  0.936267
       Atomic Center   29 is at  -2.740792  0.372670 -1.440197
       Atomic Center   30 is at  -0.736246 -0.143466 -0.256331
       Atomic Center   31 is at  -2.441731 -1.784910  1.638247
       Atomic Center   32 is at  -0.508539 -3.113384  1.076003
       Atomic Center   33 is at  -0.418570 -2.493083  2.704199
       Atomic Center   34 is at  -3.838503 -4.414066 -1.566204
       Atomic Center   35 is at  -5.046090 -3.521684 -2.485031
       Atomic Center   36 is at  -5.540949 -4.621640 -1.192925
       Atomic Center   37 is at  -4.392657 -1.465892 -1.903610
       Atomic Center   38 is at  -6.792135 -0.499390 -0.463270
       Atomic Center   39 is at  -0.754141 -2.190964 -1.028630
       Atomic Center   40 is at  -1.851277  0.584759  1.991743
       Atomic Center   41 is at   0.939313 -1.665963  1.405026
       Atomic Center   42 is at   1.612671 -1.840005  0.265358
       Atomic Center   43 is at   1.140948 -2.451317 -0.682307
       Atomic Center   44 is at   2.991789 -1.258842  0.182436
       Atomic Center   45 is at   3.374504 -0.118166  0.880299
       Atomic Center   46 is at   4.659155  0.385686  0.752285
       Atomic Center   47 is at   3.917051 -1.878431 -0.651582
       Atomic Center   48 is at   5.203969 -1.382818 -0.766298
       Atomic Center   49 is at   5.596651 -0.240840 -0.066895
       Atomic Center   50 is at   6.981518  0.297794 -0.197303
       Atomic Center   51 is at   7.204102  1.666918 -0.344140
       Atomic Center   52 is at   8.083146 -0.557503 -0.175601
       Atomic Center   53 is at   8.492618  2.167083 -0.466935
       Atomic Center   54 is at   9.372086 -0.057748 -0.295495
       Atomic Center   55 is at   9.581784  1.306675 -0.442356
       Atomic Center   56 is at   1.390654 -1.206273  2.162370
       Atomic Center   57 is at   2.679515  0.403928  1.512252
       Atomic Center   58 is at   4.931598  1.265017  1.306479
       Atomic Center   59 is at   3.626878 -2.747709 -1.210485
       Atomic Center   60 is at   5.899072 -1.876512 -1.420488
       Atomic Center   61 is at   6.370075  2.344438 -0.380840
       Atomic Center   62 is at   7.937577 -1.615072 -0.047511
       Atomic Center   63 is at   8.643161  3.225096 -0.587045
       Atomic Center   64 is at  10.208921 -0.732651 -0.268832
       Atomic Center   65 is at  10.580359  1.694233 -0.536560
      ESP Fit Center   66 is at  -9.355888 -1.490770 -0.790416
      ESP Fit Center   67 is at  -9.355888 -1.490770 -0.490416
      ESP Fit Center   68 is at  -9.355888 -1.490770 -0.190416
      ESP Fit Center   69 is at  -9.355888 -1.190770 -1.090416
      ESP Fit Center   70 is at  -9.355888 -1.190770 -0.790416
      ESP Fit Center   71 is at  -9.355888 -1.190770 -0.490416
      ESP Fit Center   72 is at  -9.355888 -1.190770 -0.190416
      ESP Fit Center   73 is at  -9.355888 -1.190770  0.109584
      ESP Fit Center   74 is at  -9.355888 -1.190770  0.409584
      ESP Fit Center   75 is at  -9.355888 -0.890770 -1.390416
      ESP Fit Center   76 is at  -9.355888 -0.890770 -1.090416
      ESP Fit Center   77 is at  -9.355888 -0.890770 -0.790416
      ESP Fit Center   78 is at  -9.355888 -0.890770 -0.490416
      ESP Fit Center   79 is at  -9.355888 -0.890770 -0.190416
      ESP Fit Center   80 is at  -9.355888 -0.890770  0.109584
      ESP Fit Center   81 is at  -9.355888 -0.890770  0.409584
      ESP Fit Center   82 is at  -9.355888 -0.590770 -1.390416
      ESP Fit Center   83 is at  -9.355888 -0.590770 -1.090416
      ESP Fit Center   84 is at  -9.355888 -0.590770 -0.790416
      ESP Fit Center   85 is at  -9.355888 -0.590770 -0.490416
      ESP Fit Center   86 is at  -9.355888 -0.590770 -0.190416
      ESP Fit Center   87 is at  -9.355888 -0.590770  0.109584
      ESP Fit Center   88 is at  -9.355888 -0.590770  0.409584
      ESP Fit Center   89 is at  -9.355888 -0.290770 -1.390416
      ESP Fit Center   90 is at  -9.355888 -0.290770 -1.090416
      ESP Fit Center   91 is at  -9.355888 -0.290770 -0.790416
      ESP Fit Center   92 is at  -9.355888 -0.290770 -0.490416
      ESP Fit Center   93 is at  -9.355888 -0.290770 -0.190416
      ESP Fit Center   94 is at  -9.355888 -0.290770  0.109584
      ESP Fit Center   95 is at  -9.355888 -0.290770  0.409584
      ESP Fit Center   96 is at  -9.355888  0.009230 -1.390416
      ESP Fit Center   97 is at  -9.355888  0.009230 -1.090416
      ESP Fit Center   98 is at  -9.355888  0.009230 -0.790416
      ESP Fit Center   99 is at  -9.355888  0.009230 -0.490416
      ESP Fit Center  100 is at  -9.355888  0.009230 -0.190416
      ESP Fit Center  101 is at  -9.355888  0.009230  0.109584
      ESP Fit Center  102 is at  -9.355888  0.009230  0.409584
      ESP Fit Center  103 is at  -9.355888  0.309230 -1.090416
      ESP Fit Center  104 is at  -9.355888  0.309230 -0.790416
      ESP Fit Center  105 is at  -9.355888  0.309230 -0.490416
      ESP Fit Center  106 is at  -9.355888  0.309230 -0.190416
      ESP Fit Center  107 is at  -9.355888  0.309230  0.109584
      ESP Fit Center  108 is at  -9.355888  0.609230 -0.490416
      ESP Fit Center  109 is at  -9.055888 -2.090770 -0.790416
      ESP Fit Center  110 is at  -9.055888 -2.090770 -0.490416
      ESP Fit Center  111 is at  -9.055888 -2.090770 -0.190416
      ESP Fit Center  112 is at  -9.055888 -1.790770 -1.390416
      ESP Fit Center  113 is at  -9.055888 -1.790770 -1.090416
      ESP Fit Center  114 is at  -9.055888 -1.790770 -0.790416
      ESP Fit Center  115 is at  -9.055888 -1.790770 -0.490416
      ESP Fit Center  116 is at  -9.055888 -1.790770 -0.190416
      ESP Fit Center  117 is at  -9.055888 -1.790770  0.109584
      ESP Fit Center  118 is at  -9.055888 -1.790770  0.409584
      ESP Fit Center  119 is at  -9.055888 -1.490770 -1.690416
      ESP Fit Center  120 is at  -9.055888 -1.490770 -1.390416
      ESP Fit Center  121 is at  -9.055888 -1.490770 -1.090416
      ESP Fit Center  122 is at  -9.055888 -1.490770 -0.790416
      ESP Fit Center  123 is at  -9.055888 -1.490770 -0.490416
      ESP Fit Center  124 is at  -9.055888 -1.490770 -0.190416
      ESP Fit Center  125 is at  -9.055888 -1.490770  0.109584
      ESP Fit Center  126 is at  -9.055888 -1.490770  0.409584
      ESP Fit Center  127 is at  -9.055888 -1.490770  0.709584
      ESP Fit Center  128 is at  -9.055888 -1.190770 -1.690416
      ESP Fit Center  129 is at  -9.055888 -1.190770 -1.390416
      ESP Fit Center  130 is at  -9.055888 -1.190770 -1.090416
      ESP Fit Center  131 is at  -9.055888 -1.190770 -0.790416
      ESP Fit Center  132 is at  -9.055888 -1.190770 -0.490416
      ESP Fit Center  133 is at  -9.055888 -1.190770 -0.190416
      ESP Fit Center  134 is at  -9.055888 -1.190770  0.109584
      ESP Fit Center  135 is at  -9.055888 -1.190770  0.409584
      ESP Fit Center  136 is at  -9.055888 -1.190770  0.709584
      ESP Fit Center  137 is at  -9.055888 -1.190770  1.009584
      ESP Fit Center  138 is at  -9.055888 -0.890770 -1.990416
      ESP Fit Center  139 is at  -9.055888 -0.890770 -1.690416
      ESP Fit Center  140 is at  -9.055888 -0.890770 -1.390416
      ESP Fit Center  141 is at  -9.055888 -0.890770 -1.090416
      ESP Fit Center  142 is at  -9.055888 -0.890770 -0.790416
      ESP Fit Center  143 is at  -9.055888 -0.890770 -0.490416
      ESP Fit Center  144 is at  -9.055888 -0.890770 -0.190416
      ESP Fit Center  145 is at  -9.055888 -0.890770  0.109584
      ESP Fit Center  146 is at  -9.055888 -0.890770  0.409584
      ESP Fit Center  147 is at  -9.055888 -0.890770  0.709584
      ESP Fit Center  148 is at  -9.055888 -0.890770  1.009584
      ESP Fit Center  149 is at  -9.055888 -0.590770 -1.990416
      ESP Fit Center  150 is at  -9.055888 -0.590770 -1.690416
      ESP Fit Center  151 is at  -9.055888 -0.590770 -1.390416
      ESP Fit Center  152 is at  -9.055888 -0.590770 -1.090416
      ESP Fit Center  153 is at  -9.055888 -0.590770 -0.790416
      ESP Fit Center  154 is at  -9.055888 -0.590770 -0.490416
      ESP Fit Center  155 is at  -9.055888 -0.590770 -0.190416
      ESP Fit Center  156 is at  -9.055888 -0.590770  0.109584
      ESP Fit Center  157 is at  -9.055888 -0.590770  0.409584
      ESP Fit Center  158 is at  -9.055888 -0.590770  0.709584
      ESP Fit Center  159 is at  -9.055888 -0.590770  1.009584
      ESP Fit Center  160 is at  -9.055888 -0.290770 -1.990416
      ESP Fit Center  161 is at  -9.055888 -0.290770 -1.690416
      ESP Fit Center  162 is at  -9.055888 -0.290770 -1.390416
      ESP Fit Center  163 is at  -9.055888 -0.290770 -1.090416
      ESP Fit Center  164 is at  -9.055888 -0.290770 -0.790416
      ESP Fit Center  165 is at  -9.055888 -0.290770 -0.490416
      ESP Fit Center  166 is at  -9.055888 -0.290770 -0.190416
      ESP Fit Center  167 is at  -9.055888 -0.290770  0.109584
      ESP Fit Center  168 is at  -9.055888 -0.290770  0.409584
      ESP Fit Center  169 is at  -9.055888 -0.290770  0.709584
      ESP Fit Center  170 is at  -9.055888 -0.290770  1.009584
      ESP Fit Center  171 is at  -9.055888  0.009230 -1.990416
      ESP Fit Center  172 is at  -9.055888  0.009230 -1.690416
      ESP Fit Center  173 is at  -9.055888  0.009230 -1.390416
      ESP Fit Center  174 is at  -9.055888  0.009230 -1.090416
      ESP Fit Center  175 is at  -9.055888  0.009230 -0.790416
      ESP Fit Center  176 is at  -9.055888  0.009230 -0.490416
      ESP Fit Center  177 is at  -9.055888  0.009230 -0.190416
      ESP Fit Center  178 is at  -9.055888  0.009230  0.109584
      ESP Fit Center  179 is at  -9.055888  0.009230  0.409584
      ESP Fit Center  180 is at  -9.055888  0.009230  0.709584
      ESP Fit Center  181 is at  -9.055888  0.009230  1.009584
      ESP Fit Center  182 is at  -9.055888  0.309230 -1.690416
      ESP Fit Center  183 is at  -9.055888  0.309230 -1.390416
      ESP Fit Center  184 is at  -9.055888  0.309230 -1.090416
      ESP Fit Center  185 is at  -9.055888  0.309230 -0.790416
      ESP Fit Center  186 is at  -9.055888  0.309230 -0.490416
      ESP Fit Center  187 is at  -9.055888  0.309230 -0.190416
      ESP Fit Center  188 is at  -9.055888  0.309230  0.109584
      ESP Fit Center  189 is at  -9.055888  0.309230  0.409584
      ESP Fit Center  190 is at  -9.055888  0.309230  0.709584
      ESP Fit Center  191 is at  -9.055888  0.309230  1.009584
      ESP Fit Center  192 is at  -9.055888  0.609230 -1.390416
      ESP Fit Center  193 is at  -9.055888  0.609230 -1.090416
      ESP Fit Center  194 is at  -9.055888  0.609230 -0.790416
      ESP Fit Center  195 is at  -9.055888  0.609230 -0.490416
      ESP Fit Center  196 is at  -9.055888  0.609230 -0.190416
      ESP Fit Center  197 is at  -9.055888  0.609230  0.109584
      ESP Fit Center  198 is at  -9.055888  0.609230  0.409584
      ESP Fit Center  199 is at  -9.055888  0.609230  0.709584
      ESP Fit Center  200 is at  -9.055888  0.609230  1.009584
      ESP Fit Center  201 is at  -9.055888  0.909230 -1.090416
      ESP Fit Center  202 is at  -9.055888  0.909230 -0.790416
      ESP Fit Center  203 is at  -9.055888  0.909230 -0.490416
      ESP Fit Center  204 is at  -9.055888  0.909230 -0.190416
      ESP Fit Center  205 is at  -9.055888  0.909230  0.109584
      ESP Fit Center  206 is at  -9.055888  0.909230  0.409584
      ESP Fit Center  207 is at  -9.055888  0.909230  0.709584
      ESP Fit Center  208 is at  -9.055888  0.909230  1.009584
      ESP Fit Center  209 is at  -9.055888  1.209230 -0.490416
      ESP Fit Center  210 is at  -9.055888  1.209230 -0.190416
      ESP Fit Center  211 is at  -9.055888  1.209230  0.109584
      ESP Fit Center  212 is at  -9.055888  1.209230  0.409584
      ESP Fit Center  213 is at  -9.055888  1.209230  0.709584
      ESP Fit Center  214 is at  -8.755888 -2.390770 -1.090416
      ESP Fit Center  215 is at  -8.755888 -2.390770 -0.790416
      ESP Fit Center  216 is at  -8.755888 -2.390770 -0.490416
      ESP Fit Center  217 is at  -8.755888 -2.390770 -0.190416
      ESP Fit Center  218 is at  -8.755888 -2.390770  0.109584
      ESP Fit Center  219 is at  -8.755888 -2.090770 -1.390416
      ESP Fit Center  220 is at  -8.755888 -2.090770 -1.090416
      ESP Fit Center  221 is at  -8.755888 -2.090770 -0.790416
      ESP Fit Center  222 is at  -8.755888 -2.090770 -0.490416
      ESP Fit Center  223 is at  -8.755888 -2.090770 -0.190416
      ESP Fit Center  224 is at  -8.755888 -2.090770  0.109584
      ESP Fit Center  225 is at  -8.755888 -2.090770  0.409584
      ESP Fit Center  226 is at  -8.755888 -2.090770  0.709584
      ESP Fit Center  227 is at  -8.755888 -1.790770 -1.690416
      ESP Fit Center  228 is at  -8.755888 -1.790770 -1.390416
      ESP Fit Center  229 is at  -8.755888 -1.790770 -1.090416
      ESP Fit Center  230 is at  -8.755888 -1.790770 -0.790416
      ESP Fit Center  231 is at  -8.755888 -1.790770 -0.490416
      ESP Fit Center  232 is at  -8.755888 -1.790770 -0.190416
      ESP Fit Center  233 is at  -8.755888 -1.790770  0.109584
      ESP Fit Center  234 is at  -8.755888 -1.790770  0.409584
      ESP Fit Center  235 is at  -8.755888 -1.790770  0.709584
      ESP Fit Center  236 is at  -8.755888 -1.790770  1.009584
      ESP Fit Center  237 is at  -8.755888 -1.490770 -1.990416
      ESP Fit Center  238 is at  -8.755888 -1.490770 -1.690416
      ESP Fit Center  239 is at  -8.755888 -1.490770 -1.390416
      ESP Fit Center  240 is at  -8.755888 -1.490770 -1.090416
      ESP Fit Center  241 is at  -8.755888 -1.490770 -0.790416
      ESP Fit Center  242 is at  -8.755888 -1.490770 -0.490416
      ESP Fit Center  243 is at  -8.755888 -1.490770 -0.190416
      ESP Fit Center  244 is at  -8.755888 -1.490770  0.109584
      ESP Fit Center  245 is at  -8.755888 -1.490770  0.409584
      ESP Fit Center  246 is at  -8.755888 -1.490770  0.709584
      ESP Fit Center  247 is at  -8.755888 -1.490770  1.009584
      ESP Fit Center  248 is at  -8.755888 -1.190770 -2.290416
      ESP Fit Center  249 is at  -8.755888 -1.190770 -1.990416
      ESP Fit Center  250 is at  -8.755888 -1.190770 -1.690416
      ESP Fit Center  251 is at  -8.755888 -1.190770 -1.390416
      ESP Fit Center  252 is at  -8.755888 -1.190770 -1.090416
      ESP Fit Center  253 is at  -8.755888 -1.190770 -0.790416
      ESP Fit Center  254 is at  -8.755888 -1.190770 -0.490416
      ESP Fit Center  255 is at  -8.755888 -1.190770 -0.190416
      ESP Fit Center  256 is at  -8.755888 -1.190770  0.109584
      ESP Fit Center  257 is at  -8.755888 -1.190770  0.409584
      ESP Fit Center  258 is at  -8.755888 -1.190770  0.709584
      ESP Fit Center  259 is at  -8.755888 -1.190770  1.009584
      ESP Fit Center  260 is at  -8.755888 -1.190770  1.309584
      ESP Fit Center  261 is at  -8.755888 -0.890770 -2.290416
      ESP Fit Center  262 is at  -8.755888 -0.890770 -1.990416
      ESP Fit Center  263 is at  -8.755888 -0.890770 -1.690416
      ESP Fit Center  264 is at  -8.755888 -0.890770 -1.390416
      ESP Fit Center  265 is at  -8.755888 -0.890770 -1.090416
      ESP Fit Center  266 is at  -8.755888 -0.890770 -0.790416
      ESP Fit Center  267 is at  -8.755888 -0.890770 -0.490416
      ESP Fit Center  268 is at  -8.755888 -0.890770 -0.190416
      ESP Fit Center  269 is at  -8.755888 -0.890770  0.109584
      ESP Fit Center  270 is at  -8.755888 -0.890770  0.409584
      ESP Fit Center  271 is at  -8.755888 -0.890770  0.709584
      ESP Fit Center  272 is at  -8.755888 -0.890770  1.009584
      ESP Fit Center  273 is at  -8.755888 -0.890770  1.309584
      ESP Fit Center  274 is at  -8.755888 -0.590770 -2.290416
      ESP Fit Center  275 is at  -8.755888 -0.590770 -1.990416
      ESP Fit Center  276 is at  -8.755888 -0.590770 -1.690416
      ESP Fit Center  277 is at  -8.755888 -0.590770 -1.390416
      ESP Fit Center  278 is at  -8.755888 -0.590770 -1.090416
      ESP Fit Center  279 is at  -8.755888 -0.590770 -0.790416
      ESP Fit Center  280 is at  -8.755888 -0.590770 -0.490416
      ESP Fit Center  281 is at  -8.755888 -0.590770 -0.190416
      ESP Fit Center  282 is at  -8.755888 -0.590770  0.109584
      ESP Fit Center  283 is at  -8.755888 -0.590770  0.409584
      ESP Fit Center  284 is at  -8.755888 -0.590770  0.709584
      ESP Fit Center  285 is at  -8.755888 -0.590770  1.009584
      ESP Fit Center  286 is at  -8.755888 -0.590770  1.309584
      ESP Fit Center  287 is at  -8.755888 -0.290770 -2.290416
      ESP Fit Center  288 is at  -8.755888 -0.290770 -1.990416
      ESP Fit Center  289 is at  -8.755888 -0.290770 -1.690416
      ESP Fit Center  290 is at  -8.755888 -0.290770 -1.390416
      ESP Fit Center  291 is at  -8.755888 -0.290770 -1.090416
      ESP Fit Center  292 is at  -8.755888 -0.290770 -0.790416
      ESP Fit Center  293 is at  -8.755888 -0.290770 -0.490416
      ESP Fit Center  294 is at  -8.755888 -0.290770 -0.190416
      ESP Fit Center  295 is at  -8.755888 -0.290770  0.109584
      ESP Fit Center  296 is at  -8.755888 -0.290770  0.409584
      ESP Fit Center  297 is at  -8.755888 -0.290770  0.709584
      ESP Fit Center  298 is at  -8.755888 -0.290770  1.009584
      ESP Fit Center  299 is at  -8.755888 -0.290770  1.309584
      ESP Fit Center  300 is at  -8.755888 -0.290770  1.609584
      ESP Fit Center  301 is at  -8.755888  0.009230 -2.290416
      ESP Fit Center  302 is at  -8.755888  0.009230 -1.990416
      ESP Fit Center  303 is at  -8.755888  0.009230 -1.690416
      ESP Fit Center  304 is at  -8.755888  0.009230 -1.390416
      ESP Fit Center  305 is at  -8.755888  0.009230 -1.090416
      ESP Fit Center  306 is at  -8.755888  0.009230 -0.790416
      ESP Fit Center  307 is at  -8.755888  0.009230 -0.490416
      ESP Fit Center  308 is at  -8.755888  0.009230 -0.190416
      ESP Fit Center  309 is at  -8.755888  0.009230  0.109584
      ESP Fit Center  310 is at  -8.755888  0.009230  0.409584
      ESP Fit Center  311 is at  -8.755888  0.009230  0.709584
      ESP Fit Center  312 is at  -8.755888  0.009230  1.009584
      ESP Fit Center  313 is at  -8.755888  0.009230  1.309584
      ESP Fit Center  314 is at  -8.755888  0.009230  1.609584
      ESP Fit Center  315 is at  -8.755888  0.309230 -1.990416
      ESP Fit Center  316 is at  -8.755888  0.309230 -1.690416
      ESP Fit Center  317 is at  -8.755888  0.309230 -1.390416
      ESP Fit Center  318 is at  -8.755888  0.309230 -1.090416
      ESP Fit Center  319 is at  -8.755888  0.309230 -0.790416
      ESP Fit Center  320 is at  -8.755888  0.309230 -0.490416
      ESP Fit Center  321 is at  -8.755888  0.309230 -0.190416
      ESP Fit Center  322 is at  -8.755888  0.309230  0.109584
      ESP Fit Center  323 is at  -8.755888  0.309230  0.409584
      ESP Fit Center  324 is at  -8.755888  0.309230  0.709584
      ESP Fit Center  325 is at  -8.755888  0.309230  1.009584
      ESP Fit Center  326 is at  -8.755888  0.309230  1.309584
      ESP Fit Center  327 is at  -8.755888  0.309230  1.609584
      ESP Fit Center  328 is at  -8.755888  0.609230 -1.990416
      ESP Fit Center  329 is at  -8.755888  0.609230 -1.690416
      ESP Fit Center  330 is at  -8.755888  0.609230 -1.390416
      ESP Fit Center  331 is at  -8.755888  0.609230 -1.090416
      ESP Fit Center  332 is at  -8.755888  0.609230 -0.790416
      ESP Fit Center  333 is at  -8.755888  0.609230 -0.490416
      ESP Fit Center  334 is at  -8.755888  0.609230 -0.190416
      ESP Fit Center  335 is at  -8.755888  0.609230  0.109584
      ESP Fit Center  336 is at  -8.755888  0.609230  0.409584
      ESP Fit Center  337 is at  -8.755888  0.609230  0.709584
      ESP Fit Center  338 is at  -8.755888  0.609230  1.009584
      ESP Fit Center  339 is at  -8.755888  0.609230  1.309584
      ESP Fit Center  340 is at  -8.755888  0.609230  1.609584
      ESP Fit Center  341 is at  -8.755888  0.909230 -1.690416
      ESP Fit Center  342 is at  -8.755888  0.909230 -1.390416
      ESP Fit Center  343 is at  -8.755888  0.909230 -1.090416
      ESP Fit Center  344 is at  -8.755888  0.909230 -0.790416
      ESP Fit Center  345 is at  -8.755888  0.909230 -0.490416
      ESP Fit Center  346 is at  -8.755888  0.909230 -0.190416
      ESP Fit Center  347 is at  -8.755888  0.909230  0.109584
      ESP Fit Center  348 is at  -8.755888  0.909230  0.409584
      ESP Fit Center  349 is at  -8.755888  0.909230  0.709584
      ESP Fit Center  350 is at  -8.755888  0.909230  1.009584
      ESP Fit Center  351 is at  -8.755888  0.909230  1.309584
      ESP Fit Center  352 is at  -8.755888  0.909230  1.609584
      ESP Fit Center  353 is at  -8.755888  1.209230 -1.390416
      ESP Fit Center  354 is at  -8.755888  1.209230 -1.090416
      ESP Fit Center  355 is at  -8.755888  1.209230 -0.790416
      ESP Fit Center  356 is at  -8.755888  1.209230 -0.490416
      ESP Fit Center  357 is at  -8.755888  1.209230 -0.190416
      ESP Fit Center  358 is at  -8.755888  1.209230  0.109584
      ESP Fit Center  359 is at  -8.755888  1.209230  0.409584
      ESP Fit Center  360 is at  -8.755888  1.209230  0.709584
      ESP Fit Center  361 is at  -8.755888  1.209230  1.009584
      ESP Fit Center  362 is at  -8.755888  1.209230  1.309584
      ESP Fit Center  363 is at  -8.755888  1.509230 -1.090416
      ESP Fit Center  364 is at  -8.755888  1.509230 -0.790416
      ESP Fit Center  365 is at  -8.755888  1.509230 -0.490416
      ESP Fit Center  366 is at  -8.755888  1.509230 -0.190416
      ESP Fit Center  367 is at  -8.755888  1.509230  0.109584
      ESP Fit Center  368 is at  -8.755888  1.509230  0.409584
      ESP Fit Center  369 is at  -8.755888  1.509230  0.709584
      ESP Fit Center  370 is at  -8.755888  1.509230  1.009584
      ESP Fit Center  371 is at  -8.755888  1.809230 -0.490416
      ESP Fit Center  372 is at  -8.755888  1.809230 -0.190416
      ESP Fit Center  373 is at  -8.755888  1.809230  0.109584
      ESP Fit Center  374 is at  -8.755888  1.809230  0.409584
      ESP Fit Center  375 is at  -8.755888  1.809230  0.709584
      ESP Fit Center  376 is at  -8.455888 -2.690770 -0.790416
      ESP Fit Center  377 is at  -8.455888 -2.690770 -0.490416
      ESP Fit Center  378 is at  -8.455888 -2.690770 -0.190416
      ESP Fit Center  379 is at  -8.455888 -2.390770 -1.390416
      ESP Fit Center  380 is at  -8.455888 -2.390770 -1.090416
      ESP Fit Center  381 is at  -8.455888 -2.390770 -0.790416
      ESP Fit Center  382 is at  -8.455888 -2.390770 -0.490416
      ESP Fit Center  383 is at  -8.455888 -2.390770 -0.190416
      ESP Fit Center  384 is at  -8.455888 -2.390770  0.109584
      ESP Fit Center  385 is at  -8.455888 -2.390770  0.409584
      ESP Fit Center  386 is at  -8.455888 -2.390770  0.709584
      ESP Fit Center  387 is at  -8.455888 -2.090770 -1.990416
      ESP Fit Center  388 is at  -8.455888 -2.090770 -1.690416
      ESP Fit Center  389 is at  -8.455888 -2.090770 -1.390416
      ESP Fit Center  390 is at  -8.455888 -2.090770 -1.090416
      ESP Fit Center  391 is at  -8.455888 -2.090770 -0.790416
      ESP Fit Center  392 is at  -8.455888 -2.090770 -0.490416
      ESP Fit Center  393 is at  -8.455888 -2.090770 -0.190416
      ESP Fit Center  394 is at  -8.455888 -2.090770  0.109584
      ESP Fit Center  395 is at  -8.455888 -2.090770  0.409584
      ESP Fit Center  396 is at  -8.455888 -2.090770  0.709584
      ESP Fit Center  397 is at  -8.455888 -2.090770  1.009584
      ESP Fit Center  398 is at  -8.455888 -1.790770 -2.290416
      ESP Fit Center  399 is at  -8.455888 -1.790770 -1.990416
      ESP Fit Center  400 is at  -8.455888 -1.790770 -1.690416
      ESP Fit Center  401 is at  -8.455888 -1.790770 -1.390416
      ESP Fit Center  402 is at  -8.455888 -1.790770 -1.090416
      ESP Fit Center  403 is at  -8.455888 -1.790770 -0.790416
      ESP Fit Center  404 is at  -8.455888 -1.790770 -0.490416
      ESP Fit Center  405 is at  -8.455888 -1.790770 -0.190416
      ESP Fit Center  406 is at  -8.455888 -1.790770  0.109584
[...]
 **** Fit      -0.026848
 **** Fit      -0.027404
 **** Fit      -0.028119
 **** Fit      -0.026180
 **** Fit      -0.025645
 **** Fit      -0.025305
 **** Fit      -0.025214
 **** Fit      -0.025385
 **** Fit      -0.025783
 **** Fit      -0.026536
 **** Fit      -0.025724
 **** Fit      -0.025050
 **** Fit      -0.024621
 **** Fit      -0.024516
 **** Fit      -0.024752
 **** Fit      -0.025279
 **** Fit      -0.026000
 **** Fit      -0.026805
 **** Fit      -0.027270
 **** Fit      -0.026258
 **** Fit      -0.025270
 **** Fit      -0.024439
 **** Fit      -0.023910
 **** Fit      -0.023794
 **** Fit      -0.024112
 **** Fit      -0.024791
 **** Fit      -0.025696
 **** Fit      -0.026681
 **** Fit      -0.027629
 **** Fit      -0.028281
 **** Fit      -0.027213
 **** Fit      -0.026044
 **** Fit      -0.024882
 **** Fit      -0.023894
 **** Fit      -0.023267
 **** Fit      -0.023145
 **** Fit      -0.023557
 **** Fit      -0.024401
 **** Fit      -0.025497
 **** Fit      -0.026659
 **** Fit      -0.027749
 **** Fit      -0.028407
 **** Fit      -0.027236
 **** Fit      -0.025936
 **** Fit      -0.024632
 **** Fit      -0.023515
 **** Fit      -0.022812
 **** Fit      -0.022698
 **** Fit      -0.023206
 **** Fit      -0.024205
 **** Fit      -0.025470
 **** Fit      -0.026781
 **** Fit      -0.027985
 **** Fit      -0.028581
 **** Fit      -0.027338
 **** Fit      -0.025953
 **** Fit      -0.024560
 **** Fit      -0.023372
 **** Fit      -0.022640
 **** Fit      -0.022556
 **** Fit      -0.023150
 **** Fit      -0.024268
 **** Fit      -0.025655
 **** Fit      -0.027067
 **** Fit      -0.028341
 **** Fit      -0.029395
 **** Fit      -0.028772
 **** Fit      -0.027488
 **** Fit      -0.026061
 **** Fit      -0.024640
 **** Fit      -0.023448
 **** Fit      -0.022744
 **** Fit      -0.022717
 **** Fit      -0.023384
 **** Fit      -0.024579
 **** Fit      -0.026031
 **** Fit      -0.027492
 **** Fit      -0.028791
 **** Fit      -0.029850
 **** Fit      -0.028931
 **** Fit      -0.027618
 **** Fit      -0.026174
 **** Fit      -0.024762
 **** Fit      -0.023614
 **** Fit      -0.022983
 **** Fit      -0.023038
 **** Fit      -0.023779
 **** Fit      -0.025027
 **** Fit      -0.026512
 **** Fit      -0.027985
 **** Fit      -0.029282
 **** Fit      -0.029002
 **** Fit      -0.027649
 **** Fit      -0.026178
 **** Fit      -0.024769
 **** Fit      -0.023671
 **** Fit      -0.023130
 **** Fit      -0.023293
 **** Fit      -0.024131
 **** Fit      -0.025447
 **** Fit      -0.026972
 **** Fit      -0.028458
 **** Fit      -0.029747
 **** Fit      -0.030134
 **** Fit      -0.028936
 **** Fit      -0.027508
 **** Fit      -0.025964
 **** Fit      -0.024510
 **** Fit      -0.023423
 **** Fit      -0.022965
 **** Fit      -0.023263
 **** Fit      -0.024249
 **** Fit      -0.025692
 **** Fit      -0.027300
 **** Fit      -0.028829
 **** Fit      -0.030127
 **** Fit      -0.030002
 **** Fit      -0.028707
 **** Fit      -0.027151
 **** Fit      -0.025460
 **** Fit      -0.023877
 **** Fit      -0.022734
 **** Fit      -0.022334
 **** Fit      -0.022804
 **** Fit      -0.024017
 **** Fit      -0.025669
 **** Fit      -0.027429
 **** Fit      -0.029046
 **** Fit      -0.030383
 **** Fit      -0.030839
 **** Fit      -0.029749
 **** Fit      -0.028325
 **** Fit      -0.026589
 **** Fit      -0.024674
 **** Fit      -0.022864
 **** Fit      -0.021579
 **** Fit      -0.021210
 **** Fit      -0.021893
 **** Fit      -0.023419
 **** Fit      -0.025370
 **** Fit      -0.027350
 **** Fit      -0.029098
 **** Fit      -0.030499
 **** Fit      -0.030597
 **** Fit      -0.029413
 **** Fit      -0.027850
 **** Fit      -0.025914
 **** Fit      -0.023734
 **** Fit      -0.021640
 **** Fit      -0.020155
 **** Fit      -0.019792
 **** Fit      -0.020710
 **** Fit      -0.022595
 **** Fit      -0.024890
 **** Fit      -0.027118
 **** Fit      -0.029014
 **** Fit      -0.030489
 **** Fit      -0.031556
 **** Fit      -0.030316
 **** Fit      -0.029057
 **** Fit      -0.027386
 **** Fit      -0.025295
 **** Fit      -0.022910
 **** Fit      -0.020589
 **** Fit      -0.018942
 **** Fit      -0.018581
 **** Fit      -0.019690
 **** Fit      -0.021864
 **** Fit      -0.024431
 **** Fit      -0.026850
 **** Fit      -0.028857
 **** Fit      -0.030388
 **** Fit      -0.031481
 **** Fit      -0.030041
 **** Fit      -0.028750
 **** Fit      -0.027047
 **** Fit      -0.024922
 **** Fit      -0.022502
 **** Fit      -0.020152
 **** Fit      -0.018497
 **** Fit      -0.018166
 **** Fit      -0.019342
 **** Fit      -0.021595
 **** Fit      -0.024226
 **** Fit      -0.026684
 **** Fit      -0.028707
 **** Fit      -0.030243
 **** Fit      -0.031339
 **** Fit      -0.029809
 **** Fit      -0.028546
 **** Fit      -0.026908
 **** Fit      -0.024902
 **** Fit      -0.022659
 **** Fit      -0.020526
 **** Fit      -0.019058
 **** Fit      -0.018796
 **** Fit      -0.019889
 **** Fit      -0.021964
 **** Fit      -0.024403
 **** Fit      -0.026707
 **** Fit      -0.028625
 **** Fit      -0.030099
 **** Fit      -0.031162
 **** Fit      -0.029640
 **** Fit      -0.028460
 **** Fit      -0.026973
 **** Fit      -0.025206
 **** Fit      -0.023297
 **** Fit      -0.021543
 **** Fit      -0.020379
 **** Fit      -0.020204
 **** Fit      -0.021120
 **** Fit      -0.022847
 **** Fit      -0.024915
 **** Fit      -0.026919
 **** Fit      -0.028633
 **** Fit      -0.029981
 **** Fit      -0.028478
 **** Fit      -0.027188
 **** Fit      -0.025716
 **** Fit      -0.024189
 **** Fit      -0.022846
 **** Fit      -0.021995
 **** Fit      -0.021898
 **** Fit      -0.022615
 **** Fit      -0.023959
 **** Fit      -0.025606
 **** Fit      -0.027254
 **** Fit      -0.028711
 **** Fit      -0.029895
 **** Fit      -0.028565
 **** Fit      -0.027484
 **** Fit      -0.026300
 **** Fit      -0.025124
 **** Fit      -0.024134
 **** Fit      -0.023538
 **** Fit      -0.023495
 **** Fit      -0.024040
 **** Fit      -0.025051
 **** Fit      -0.026318
 **** Fit      -0.027628
 **** Fit      -0.028827
 **** Fit      -0.027801
 **** Fit      -0.026865
 **** Fit      -0.025973
 **** Fit      -0.025253
 **** Fit      -0.024839
 **** Fit      -0.024829
 **** Fit      -0.025240
 **** Fit      -0.025995
 **** Fit      -0.026957
 **** Fit      -0.027981
 **** Fit      -0.028950
 **** Fit      -0.027364
 **** Fit      -0.026688
 **** Fit      -0.026161
 **** Fit      -0.025871
 **** Fit      -0.025878
 **** Fit      -0.026189
 **** Fit      -0.026755
 **** Fit      -0.027487
 **** Fit      -0.026668
 **** Fit      -0.026681
 **** Fit      -0.026919
 **** Fit      -0.025560
 **** Fit      -0.025266
 **** Fit      -0.025196
 **** Fit      -0.025359
 **** Fit      -0.025728
 **** Fit      -0.026439
 **** Fit      -0.025745
 **** Fit      -0.025183
 **** Fit      -0.024836
 **** Fit      -0.024763
 **** Fit      -0.024976
 **** Fit      -0.025434
 **** Fit      -0.026059
 **** Fit      -0.026298
 **** Fit      -0.025505
 **** Fit      -0.024859
 **** Fit      -0.024465
 **** Fit      -0.024396
 **** Fit      -0.024663
 **** Fit      -0.025215
 **** Fit      -0.025952
 **** Fit      -0.026765
 **** Fit      -0.027141
 **** Fit      -0.026221
 **** Fit      -0.025346
 **** Fit      -0.024635
 **** Fit      -0.024209
 **** Fit      -0.024151
 **** Fit      -0.024475
 **** Fit      -0.025115
 **** Fit      -0.025952
 **** Fit      -0.026861
 **** Fit      -0.027190
 **** Fit      -0.026211
 **** Fit      -0.025283
 **** Fit      -0.024534
 **** Fit      -0.024097
 **** Fit      -0.024064
 **** Fit      -0.024444
 **** Fit      -0.025158
 **** Fit      -0.026076
 **** Fit      -0.027055
 **** Fit      -0.027259
 **** Fit      -0.026244
 **** Fit      -0.025290
 **** Fit      -0.024533
 **** Fit      -0.024113
 **** Fit      -0.024118
 **** Fit      -0.024552
 **** Fit      -0.025328
 **** Fit      -0.026304
 **** Fit      -0.027330
 **** Fit      -0.027309
 **** Fit      -0.026270
 **** Fit      -0.025306
 **** Fit      -0.024564
 **** Fit      -0.024180
 **** Fit      -0.024238
 **** Fit      -0.024732
 **** Fit      -0.025564
 **** Fit      -0.026585
 **** Fit      -0.027644
 **** Fit      -0.026223
 **** Fit      -0.025250
 **** Fit      -0.024526
 **** Fit      -0.024189
 **** Fit      -0.024315
 **** Fit      -0.024881
 **** Fit      -0.025780
 **** Fit      -0.026851
 **** Fit      -0.027942
 **** Fit      -0.027165
 **** Fit      -0.026048
 **** Fit      -0.025046
 **** Fit      -0.024327
 **** Fit      -0.024037
 **** Fit      -0.024244
 **** Fit      -0.024908
 **** Fit      -0.025897
 **** Fit      -0.027040
 **** Fit      -0.028078
 **** Fit      -0.026911
 **** Fit      -0.025714
 **** Fit      -0.024650
 **** Fit      -0.023913
 **** Fit      -0.023664
 **** Fit      -0.023967
 **** Fit      -0.024757
 **** Fit      -0.025871
 **** Fit      -0.027113
 **** Fit      -0.028316
 **** Fit      -0.028925
 **** Fit      -0.027813
 **** Fit      -0.026548
 **** Fit      -0.025242
 **** Fit      -0.024084
 **** Fit      -0.023300
 **** Fit      -0.023082
 **** Fit      -0.023493
 **** Fit      -0.024435
 **** Fit      -0.025702
 **** Fit      -0.027067
 **** Fit      -0.028353
 **** Fit      -0.028692
 **** Fit      -0.027501
 **** Fit      -0.026136
 **** Fit      -0.024716
 **** Fit      -0.023451
 **** Fit      -0.022608
 **** Fit      -0.022412
 **** Fit      -0.022929
 **** Fit      -0.024028
 **** Fit      -0.025452
 **** Fit      -0.026942
 **** Fit      -0.028310
 **** Fit      -0.029458
 **** Fit      -0.028454
 **** Fit      -0.027208
 **** Fit      -0.025773
 **** Fit      -0.024274
 **** Fit      -0.022935
 **** Fit      -0.022051
 **** Fit      -0.021874
 **** Fit      -0.022473
 **** Fit      -0.023689
 **** Fit      -0.025227
 **** Fit      -0.026804
 **** Fit      -0.028228
 **** Fit      -0.029406
 **** Fit      -0.028256
 **** Fit      -0.027001
 **** Fit      -0.025560
 **** Fit      -0.024058
 **** Fit      -0.022723
 **** Fit      -0.021853
 **** Fit      -0.021701
 **** Fit      -0.022332
 **** Fit      -0.023580
 **** Fit      -0.025141
 **** Fit      -0.026730
 **** Fit      -0.028157
 **** Fit      -0.029331
 **** Fit      -0.028133
 **** Fit      -0.026925
 **** Fit      -0.025554
 **** Fit      -0.024145
 **** Fit      -0.022909
 **** Fit      -0.022119
 **** Fit      -0.021999
 **** Fit      -0.022607
 **** Fit      -0.023786
 **** Fit      -0.025263
 **** Fit      -0.026771
 **** Fit      -0.028132
 **** Fit      -0.029260
 **** Fit      -0.028094
 **** Fit      -0.026983
 **** Fit      -0.025750
 **** Fit      -0.024508
 **** Fit      -0.023444
 **** Fit      -0.022781
 **** Fit      -0.022699
 **** Fit      -0.023238
 **** Fit      -0.024274
 **** Fit      -0.025579
 **** Fit      -0.026931
 **** Fit      -0.028168
 **** Fit      -0.029209
 **** Fit      -0.027150
 **** Fit      -0.026090
 **** Fit      -0.025051
 **** Fit      -0.024186
 **** Fit      -0.023664
 **** Fit      -0.023616
 **** Fit      -0.024068
 **** Fit      -0.024927
 **** Fit      -0.026022
 **** Fit      -0.027176
 **** Fit      -0.028256
 **** Fit      -0.027381
 **** Fit      -0.026500
 **** Fit      -0.025662
 **** Fit      -0.024985
 **** Fit      -0.024591
 **** Fit      -0.024568
 **** Fit      -0.024934
 **** Fit      -0.025621
 **** Fit      -0.026508
 **** Fit      -0.027461
 **** Fit      -0.026919
 **** Fit      -0.026257
 **** Fit      -0.025737
 **** Fit      -0.025445
 **** Fit      -0.025439
 **** Fit      -0.025730
 **** Fit      -0.026269
 **** Fit      -0.026973
 **** Fit      -0.026391
 **** Fit      -0.026175
 **** Fit      -0.026179
 **** Fit      -0.026407
 **** Fit      -0.025434
 **** Fit      -0.025175
 **** Fit      -0.025133
 **** Fit      -0.025315
 **** Fit      -0.025767
 **** Fit      -0.025293
 **** Fit      -0.025018
 **** Fit      -0.024988
 **** Fit      -0.025207
 **** Fit      -0.025638
 **** Fit      -0.025713
 **** Fit      -0.025216
 **** Fit      -0.024939
 **** Fit      -0.024927
 **** Fit      -0.025184
 **** Fit      -0.025666
 **** Fit      -0.025691
 **** Fit      -0.025188
 **** Fit      -0.024920
 **** Fit      -0.024936
 **** Fit      -0.025232
 **** Fit      -0.025761
 **** Fit      -0.025668
 **** Fit      -0.025169
 **** Fit      -0.024922
 **** Fit      -0.024972
 **** Fit      -0.025313
 **** Fit      -0.025888
 **** Fit      -0.025108
 **** Fit      -0.024889
 **** Fit      -0.024983
 **** Fit      -0.025376
 **** Fit      -0.026152
 **** Fit      -0.025450
 **** Fit      -0.024962
 **** Fit      -0.024772
 **** Fit      -0.024916
 **** Fit      -0.025372
 **** Fit      -0.026789
 **** Fit      -0.025934
 **** Fit      -0.025203
 **** Fit      -0.024710
 **** Fit      -0.024547
 **** Fit      -0.024749
 **** Fit      -0.025278
 **** Fit      -0.026043
 **** Fit      -0.026558
 **** Fit      -0.025650
 **** Fit      -0.024878
 **** Fit      -0.024373
 **** Fit      -0.024234
 **** Fit      -0.024494
 **** Fit      -0.025104
 **** Fit      -0.025953
 **** Fit      -0.026907
 **** Fit      -0.027283
 **** Fit      -0.026308
 **** Fit      -0.025350
 **** Fit      -0.024539
 **** Fit      -0.024018
 **** Fit      -0.023899
 **** Fit      -0.024214
 **** Fit      -0.024900
 **** Fit      -0.025826
 **** Fit      -0.026846
 **** Fit      -0.027837
 **** Fit      -0.027101
 **** Fit      -0.026097
 **** Fit      -0.025109
 **** Fit      -0.024275
 **** Fit      -0.023749
 **** Fit      -0.023648
 **** Fit      -0.024004
 **** Fit      -0.024743
 **** Fit      -0.025722
 **** Fit      -0.026784
 **** Fit      -0.027802
 **** Fit      -0.026978
 **** Fit      -0.025978
 **** Fit      -0.024999
 **** Fit      -0.024177
 **** Fit      -0.023667
 **** Fit      -0.023584
 **** Fit      -0.023958
 **** Fit      -0.024711
 **** Fit      -0.025699
 **** Fit      -0.026762
 **** Fit      -0.027777
 **** Fit      -0.026939
 **** Fit      -0.025985
 **** Fit      -0.025060
 **** Fit      -0.024292
 **** Fit      -0.023823
 **** Fit      -0.023760
 **** Fit      -0.024126
 **** Fit      -0.024849
 **** Fit      -0.025793
 **** Fit      -0.026810
 **** Fit      -0.027783
 **** Fit      -0.026990
 **** Fit      -0.026119
 **** Fit      -0.025285
 **** Fit      -0.024605
 **** Fit      -0.024198
 **** Fit      -0.024154
 **** Fit      -0.024491
 **** Fit      -0.025147
 **** Fit      -0.026004
 **** Fit      -0.026933
 **** Fit      -0.026350
 **** Fit      -0.025631
 **** Fit      -0.025054
 **** Fit      -0.024719
 **** Fit      -0.024692
 **** Fit      -0.024987
 **** Fit      -0.025554
 **** Fit      -0.026299
 **** Fit      -0.027114
 **** Fit      -0.026037
 **** Fit      -0.025566
 **** Fit      -0.025298
 **** Fit      -0.025285
 **** Fit      -0.025535
 **** Fit      -0.026008
 **** Fit      -0.026633
 **** Fit      -0.025866
 **** Fit      -0.025863
 **** Fit      -0.025234
 **** Fit      -0.025123
 **** Fit      -0.025385
 **** Fit      -0.025045
 **** Fit      -0.024951
 **** Fit      -0.025122
 **** Fit      -0.025530
 **** Fit      -0.025744
 **** Fit      -0.025200
 **** Fit      -0.024859
 **** Fit      -0.024781
 **** Fit      -0.024982
 **** Fit      -0.025430
 **** Fit      -0.026054
 **** Fit      -0.025613
 **** Fit      -0.025065
 **** Fit      -0.024728
 **** Fit      -0.024664
 **** Fit      -0.024888
 **** Fit      -0.025363
 **** Fit      -0.026013
 **** Fit      -0.025561
 **** Fit      -0.025026
 **** Fit      -0.024702
 **** Fit      -0.024652
 **** Fit      -0.024887
 **** Fit      -0.025369
 **** Fit      -0.026021
 **** Fit      -0.025611
 **** Fit      -0.025107
 **** Fit      -0.024809
 **** Fit      -0.024770
 **** Fit      -0.025003
 **** Fit      -0.025470
 **** Fit      -0.026098
 **** Fit      -0.025760
 **** Fit      -0.025306
 **** Fit      -0.025042
 **** Fit      -0.025015
 **** Fit      -0.025234
 **** Fit      -0.025666
 **** Fit      -0.025368
 **** Fit      -0.025351
 **** Fit      -0.025549
 -----------------------------------------------------------------
 Leave Link  602 at Fri Sep 16 02:13:30 2022, MaxMem=   134217728 cpu:              19.3 elap:               2.4

 Test job not archived.
 1\1\GINC-NODE001\SP\RHF\6-31+G(d)\C25H29N2O9(1-)\YAO\16-Sep-2022\0\\#H
 F/6-31+G* pop=chelpg iop(6/33=2) geom=(connectivity) scf=tight\\ESP ca
 lculation of the optimized ligand structure\\-1,1\C,0,-54.8825469304,1
 1.5899193715,20.8672239604\O,0,-55.6903877633,11.9933036789,19.7850259
 819\C,0,-54.0707625058,13.6134585683,18.9976130529\C,0,-55.0614855652,
 12.4519772168,18.6372463666\C,0,-56.1692640889,12.8945788764,17.690464
 0794\C,0,-55.6401173955,13.1101835432,16.2842879249\C,0,-54.9263595046
 ,11.8513603474,15.7798053578\C,0,-53.8327499143,11.4500817356,16.78826
 91924\C,0,-53.101633661,10.1174823191,16.5494946579\C,0,-54.0090688916
 ,8.8780604982,16.4564707435\C,0,-53.2558752121,7.5945388549,16.1156759
 953\C,0,-54.6319256025,11.3302550303,13.3782813451\C,0,-53.8063565514,
 11.6312576751,12.1504044802\N,0,-54.3864923386,12.0990473188,14.455559
 9385\O,0,-52.8609921631,13.3892004371,18.9107793221\O,0,-54.6180621103
 ,14.6604645206,19.3642727227\O,0,-56.7343022947,13.4336097248,15.46306
 69467\O,0,-54.4027593204,11.3387585391,18.0770602646\O,0,-52.335464526
 6,10.255781305,15.3813860294\O,0,-54.6897504466,8.6368801506,17.666774
 9627\O,0,-55.4633159976,10.4449127516,13.3716123707\H,0,-55.5548025138
 ,11.1958383129,21.615541951\H,0,-54.3399125639,12.4290903916,21.286918
 72\H,0,-54.1830834849,10.8192734508,20.5713755973\H,0,-56.6321589117,1
 3.7976549019,18.0599533134\H,0,-56.9171056031,12.1082021557,17.6697864
 671\H,0,-54.9358408684,13.9401957442,16.2784038706\H,0,-55.6620727492,
 11.067337576,15.6863646597\H,0,-53.0683782496,12.2159369219,16.8002526
 792\H,0,-52.4483145583,9.9950319874,17.4079051966\H,0,-54.7246349444,9
 .0276624166,15.6543353054\H,0,-52.7960975685,7.6722301777,15.142730011
 6\H,0,-53.9797505577,6.7916111366,16.0740545748\H,0,-53.0280753219,10.
 8793348666,12.0731434749\H,0,-53.3419017512,12.6081702554,12.180360061
 3\H,0,-54.436261322,11.5568974584,11.2739774414\H,0,-53.607385866,12.7
 18296753,14.39591759\H,0,-56.4263394328,13.6045086703,14.581194363\H,0
 ,-51.6103848255,9.6366103361,15.4183269499\H,0,-54.9184641426,9.465213
 7994,18.0750592308\N,0,-52.2447036613,7.2126158235,17.0880519676\C,0,-
 50.9467631314,7.5012422661,16.9672567375\O,0,-50.5100817099,8.15612302
 47,16.031984121\C,0,-50.0226638059,6.9839519506,18.0279375322\C,0,-50.
 4220215521,6.780370521,19.3446344969\C,0,-49.5196891853,6.3164100561,2
 0.2886261805\C,0,-48.7016631648,6.7225753518,17.6783290077\C,0,-47.805
 972265,6.2447284722,18.6187279272\C,0,-48.1997392988,6.0347095411,19.9
 409682987\C,0,-47.2317275462,5.5274798847,20.9561815149\C,0,-47.176684
 3497,6.0875952815,22.2324445364\C,0,-46.3606646941,4.4821175171,20.649
 4967384\C,0,-46.2748395973,5.6162075095,23.1758349884\C,0,-45.46052223
 89,4.0083451988,21.5933068823\C,0,-45.4136563836,4.5741478532,22.86013
 82198\H,0,-52.5381272149,6.632223745,17.8401423347\H,0,-51.426548441,6
 .9976165729,19.6587810405\H,0,-49.8546254021,6.1620710064,21.297871286
 3\H,0,-48.3771069875,6.8950620806,16.6698014299\H,0,-46.7898095541,6.0
 547160555,18.3251727218\H,0,-47.8262246205,6.9056910538,22.4870012518\
 H,0,-46.3953904407,4.0238066022,19.6774904969\H,0,-46.2424033481,6.066
 361754,24.1519449338\H,0,-44.8023188623,3.1964624305,21.3401013825\H,0
 ,-44.7154145245,4.2081586711,23.5913968187\\Version=ES64L-G16RevC.01\S
 tate=1-A\HF=-1746.3906881\RMSD=4.552e-09\Dipole=4.8081941,-7.1392596,-
 0.3829167\Quadrupole=-4.1080696,-25.7209053,29.8289749,24.1240255,-1.0
 983415,-27.370659\PG=C01 [X(C25H29N2O9)]\\@


 Age does not diminish the extreme disappointment of
 having a scoop of ice cream fall from the cone.
 -- Jim Fiebig
 Job cpu time:       0 days  0 hours 31 minutes 32.4 seconds.
 Elapsed time:       0 days  0 hours  3 minutes 57.6 seconds.
 File lengths (MBytes):  RWF=    285 Int=      0 D2E=      0 Chk=     54 Scr=      1
 Normal termination of Gaussian 16 at Fri Sep 16 02:13:31 2022.
